# Projected DOS for list 29 of 1 atoms, at iteration step i = 0, E(Fermi) =    -0.245567 a.u.
#     MO Eigenvalue [a.u.]      Occupation                 s                 p                 d
       1         -3.122063        1.000000        0.00000000        0.00000000        0.00000000
       2         -3.121278        1.000000        0.00000000        0.00000000        0.00000000
       3         -3.121021        1.000000        0.00000000        0.00000000        0.00000000
       4         -3.120578        1.000000        0.00000000        0.00000000        0.00000000
       5         -3.120271        1.000000        0.00000000        0.00000000        0.00000000
       6         -3.119857        1.000000        0.00000000        0.00000000        0.00000000
       7         -3.119652        1.000000        0.00000000        0.00000000        0.00000000
       8         -3.119624        1.000000        0.00000000        0.00000000        0.00000000
       9         -3.119219        1.000000        0.00000000        0.00000000        0.00000000
      10         -3.119023        1.000000        0.00000000        0.00000000        0.00000000
      11         -3.118913        1.000000        0.00000000        0.00000000        0.00000000
      12         -3.118874        1.000000        0.00000000        0.00000000        0.00000000
      13         -3.118317        1.000000        0.00000000        0.00000000        0.00000000
      14         -3.118249        1.000000        0.00000000        0.00000000        0.00000000
      15         -3.117895        1.000000        0.00000000        0.00000000        0.00000000
      16         -3.117383        1.000000        0.00000000        0.00000000        0.00000000
      17         -3.117165        1.000000        0.00000000        0.00000000        0.00000000
      18         -3.116815        1.000000        0.00000000        0.00000000        0.00000000
      19         -3.116436        1.000000        0.00000000        0.00000000        0.00000000
      20         -3.116021        1.000000        0.00000000        0.00000000        0.00000000
      21         -3.115852        1.000000        0.00000000        0.00000000        0.00000000
      22         -3.115668        1.000000        0.00000000        0.00000000        0.00000000
      23         -3.115368        1.000000        0.00000000        0.00000000        0.00000000
      24         -3.115339        1.000000        0.00000000        0.00000000        0.00000000
      25         -3.115041        1.000000        0.00000000        0.00000000        0.00000000
      26         -3.114366        1.000000        0.00000000        0.00000000        0.00000000
      27         -3.113951        1.000000        0.00000000        0.00000000        0.00000000
      28         -3.113764        1.000000        0.00000000        0.00000000        0.00000000
      29         -3.112534        1.000000        0.00000000        0.00000000        0.00000000
      30         -3.111679        1.000000        0.00000000        0.00000000        0.00000000
      31         -1.784233        1.000000        0.00000000        0.00000000        0.00000000
      32         -1.782870        1.000000        0.00000000        0.00000000        0.00000000
      33         -1.782324        1.000000        0.00000000        0.00000000        0.00000000
      34         -1.782130        1.000000        0.00000000        0.00000000        0.00000000
      35         -1.781736        1.000000        0.00000000        0.00000000        0.00000000
      36         -1.781230        1.000000        0.00000000        0.00000000        0.00000000
      37         -1.780847        1.000000        0.00000000        0.00000000        0.00000000
      38         -1.780487        1.000000        0.00000000        0.00000000        0.00000000
      39         -1.780184        1.000000        0.00000000        0.00000000        0.00000000
      40         -1.779550        1.000000        0.00000000        0.00000000        0.00000000
      41         -1.779259        1.000000        0.00000000        0.00000000        0.00000000
      42         -1.778921        1.000000        0.00000000        0.00000000        0.00000000
      43         -1.778390        1.000000        0.00000000        0.00000000        0.00000000
      44         -1.778140        1.000000        0.00000000        0.00000000        0.00000000
      45         -1.777912        1.000000        0.00000000        0.00000000        0.00000000
      46         -1.777514        1.000000        0.00000000        0.00000000        0.00000000
      47         -1.777362        1.000000        0.00000000        0.00000000        0.00000000
      48         -1.776787        1.000000        0.00000000        0.00000000        0.00000000
      49         -1.776537        1.000000        0.00000000        0.00000000        0.00000000
      50         -1.776457        1.000000        0.00000000        0.00000000        0.00000000
      51         -1.776029        1.000000        0.00000000        0.00000000        0.00000000
      52         -1.774038        1.000000        0.00000000        0.00000000        0.00000000
      53         -1.773797        1.000000        0.00000000        0.00000000        0.00000000
      54         -1.773665        1.000000        0.00000000        0.00000000        0.00000000
      55         -1.772725        1.000000        0.00000000        0.00000000        0.00000000
      56         -1.772546        1.000000        0.00000000        0.00000000        0.00000000
      57         -1.772041        1.000000        0.00000000        0.00000000        0.00000000
      58         -1.771662        1.000000        0.00000000        0.00000000        0.00000000
      59         -1.771364        1.000000        0.00000000        0.00000000        0.00000000
      60         -1.770813        1.000000        0.00000000        0.00000000        0.00000000
      61         -1.770640        1.000000        0.00000000        0.00000000        0.00000000
      62         -1.770449        1.000000        0.00000000        0.00000000        0.00000000
      63         -1.770188        1.000000        0.00000000        0.00000000        0.00000000
      64         -1.770126        1.000000        0.00000000        0.00000000        0.00000000
      65         -1.769991        1.000000        0.00000000        0.00000000        0.00000000
      66         -1.769845        1.000000        0.00000000        0.00000000        0.00000000
      67         -1.769763        1.000000        0.00000000        0.00000000        0.00000000
      68         -1.769661        1.000000        0.00000000        0.00000000        0.00000000
      69         -1.769465        1.000000        0.00000000        0.00000000        0.00000000
      70         -1.769351        1.000000        0.00000000        0.00000000        0.00000000
      71         -1.769328        1.000000        0.00000000        0.00000000        0.00000000
      72         -1.769216        1.000000        0.00000000        0.00000000        0.00000000
      73         -1.769129        1.000000        0.00000000        0.00000000        0.00000000
      74         -1.769070        1.000000        0.00000000        0.00000000        0.00000000
      75         -1.768941        1.000000        0.00000000        0.00000000        0.00000000
      76         -1.768822        1.000000        0.00000000        0.00000000        0.00000000
      77         -1.768707        1.000000        0.00000000        0.00000000        0.00000000
      78         -1.768585        1.000000        0.00000000        0.00000000        0.00000000
      79         -1.768439        1.000000        0.00000000        0.00000000        0.00000000
      80         -1.768329        1.000000        0.00000000        0.00000000        0.00000000
      81         -1.768089        1.000000        0.00000000        0.00000000        0.00000000
      82         -1.767883        1.000000        0.00000000        0.00000000        0.00000000
      83         -1.767662        1.000000        0.00000000        0.00000000        0.00000000
      84         -1.767495        1.000000        0.00000000        0.00000000        0.00000000
      85         -1.767311        1.000000        0.00000000        0.00000000        0.00000000
      86         -1.767266        1.000000        0.00000000        0.00000000        0.00000000
      87         -1.767060        1.000000        0.00000000        0.00000000        0.00000000
      88         -1.767025        1.000000        0.00000000        0.00000000        0.00000000
      89         -1.766872        1.000000        0.00000000        0.00000000        0.00000000
      90         -1.766524        1.000000        0.00000000        0.00000000        0.00000000
      91         -1.766405        1.000000        0.00000000        0.00000000        0.00000000
      92         -1.766254        1.000000        0.00000000        0.00000000        0.00000000
      93         -1.766123        1.000000        0.00000000        0.00000000        0.00000000
      94         -1.765857        1.000000        0.00000000        0.00000000        0.00000000
      95         -1.765515        1.000000        0.00000000        0.00000000        0.00000000
      96         -1.765181        1.000000        0.00000000        0.00000000        0.00000000
      97         -1.765105        1.000000        0.00000000        0.00000000        0.00000000
      98         -1.764967        1.000000        0.00000000        0.00000000        0.00000000
      99         -1.764710        1.000000        0.00000000        0.00000000        0.00000000
     100         -1.764440        1.000000        0.00000000        0.00000000        0.00000000
     101         -1.764248        1.000000        0.00000000        0.00000000        0.00000000
     102         -1.763945        1.000000        0.00000000        0.00000000        0.00000000
     103         -1.763804        1.000000        0.00000000        0.00000000        0.00000000
     104         -1.763351        1.000000        0.00000000        0.00000000        0.00000000
     105         -1.763205        1.000000        0.00000000        0.00000000        0.00000000
     106         -1.763107        1.000000        0.00000000        0.00000000        0.00000000
     107         -1.762531        1.000000        0.00000000        0.00000000        0.00000000
     108         -1.762343        1.000000        0.00000000        0.00000000        0.00000000
     109         -1.761453        1.000000        0.00000000        0.00000000        0.00000000
     110         -1.760969        1.000000        0.00000000        0.00000000        0.00000000
     111         -1.760481        1.000000        0.00000000        0.00000000        0.00000000
     112         -1.760009        1.000000        0.00000000        0.00000000        0.00000000
     113         -1.759531        1.000000        0.00000000        0.00000000        0.00000000
     114         -1.759105        1.000000        0.00000000        0.00000000        0.00000000
     115         -1.758777        1.000000        0.00000000        0.00000000        0.00000000
     116         -1.757462        1.000000        0.00000000        0.00000000        0.00000000
     117         -1.756221        1.000000        0.00000000        0.00000000        0.00000000
     118         -1.755333        1.000000        0.00000000        0.00000000        0.00000000
     119         -1.754385        1.000000        0.00000000        0.00000000        0.00000000
     120         -1.752742        1.000000        0.00000000        0.00000000        0.00000000
     121         -1.131181        1.000000        0.00020140        0.00004715        0.00000845
     122         -1.128658        1.000000        0.00000013        0.00003783        0.00000731
     123         -1.128000        1.000000        0.00027314        0.00017431        0.00003743
     124         -1.126427        1.000000        0.00027591        0.00030986        0.00003419
     125         -1.120469        1.000000        0.00000237        0.00008408        0.00001140
     126         -1.119202        1.000000        0.00000446        0.00001645        0.00000333
     127         -1.117081        1.000000        0.00002314        0.00010749        0.00002801
     128         -1.116156        1.000000        0.00003815        0.00009844        0.00001854
     129         -1.115054        1.000000        0.00034950        0.00018416        0.00004292
     130         -1.111818        1.000000        0.00012374        0.00052908        0.00011786
     131         -1.111610        1.000000        0.00000326        0.00003210        0.00000517
     132         -1.110976        1.000000        0.00029048        0.00020840        0.00007932
     133         -1.109888        1.000000        0.00128743        0.00093243        0.00026292
     134         -1.108601        1.000000        0.00348911        0.00329635        0.00095596
     135         -1.108036        1.000000        0.00039784        0.00151882        0.00035589
     136         -1.107349        1.000000        0.00007772        0.00031114        0.00008465
     137         -1.106797        1.000000        0.00545505        0.00009033        0.00006627
     138         -1.106077        1.000000        0.00028877        0.00047095        0.00011502
     139         -1.104162        1.000000        0.00025850        0.00055782        0.00012028
     140         -1.102892        1.000000        0.00073488        0.00038757        0.00010883
     141         -1.102196        1.000000        0.00326745        0.00132055        0.00043418
     142         -1.101581        1.000000        0.00100842        0.00034286        0.00005753
     143         -1.101215        1.000000        0.00032813        0.00087617        0.00015542
     144         -1.099602        1.000000        0.00110437        0.00173903        0.00058474
     145         -1.098107        1.000000        0.00350230        0.00116051        0.00041779
     146         -1.097450        1.000000        0.00000425        0.00092420        0.00025766
     147         -1.097046        1.000000        0.00100943        0.00070757        0.00021397
     148         -1.095795        1.000000        0.00002459        0.00060199        0.00013854
     149         -1.095192        1.000000        0.00528416        0.00058462        0.00027415
     150         -1.093515        1.000000        0.00442391        0.00062501        0.00028850
     151         -1.093123        1.000000        0.00066156        0.00078343        0.00024885
     152         -1.092614        1.000000        0.01599270        0.00107577        0.00063887
     153         -1.091821        1.000000        0.00027260        0.00048041        0.00009968
     154         -1.090761        1.000000        0.00833196        0.00139306        0.00039696
     155         -1.090597        1.000000        0.00192445        0.00235170        0.00072173
     156         -1.089544        1.000000        0.00015437        0.00039877        0.00012264
     157         -1.088154        1.000000        0.01408714        0.00362481        0.00112562
     158         -1.086960        1.000000        0.00823629        0.00755061        0.00215129
     159         -1.086718        1.000000        0.00539345        0.00128456        0.00019471
     160         -1.085525        1.000000        0.00026549        0.00130275        0.00042631
     161         -1.084219        1.000000        0.00093918        0.00109350        0.00038118
     162         -1.082734        1.000000        0.00178150        0.00336988        0.00104168
     163         -1.082381        1.000000        0.00006922        0.00101743        0.00027944
     164         -1.080807        1.000000        0.00043189        0.00401787        0.00136342
     165         -1.080293        1.000000        0.00024952        0.00626733        0.00200650
     166         -1.079453        1.000000        0.00108001        0.00090143        0.00039656
     167         -1.078246        1.000000        0.00009034        0.00250566        0.00085478
     168         -1.077774        1.000000        0.00000847        0.00053532        0.00017217
     169         -1.077143        1.000000        0.00175552        0.00033703        0.00010238
     170         -1.076426        1.000000        0.00008380        0.00224843        0.00074305
     171         -1.076145        1.000000        0.00040364        0.00191903        0.00067435
     172         -1.074526        1.000000        0.00024757        0.00496109        0.00163626
     173         -1.074368        1.000000        0.00149958        0.00172941        0.00076175
     174         -1.073652        1.000000        0.00120296        0.00173513        0.00074779
     175         -1.072808        1.000000        0.00199527        0.00341783        0.00102312
     176         -1.072152        1.000000        0.00035229        0.00064328        0.00017453
     177         -1.071192        1.000000        0.00063809        0.00658456        0.00256215
     178         -1.070444        1.000000        0.00019573        0.00450306        0.00166872
     179         -1.070141        1.000000        0.00152769        0.00336187        0.00109242
     180         -1.069416        1.000000        0.00006864        0.00237389        0.00082580
     181         -1.069179        1.000000        0.00008327        0.00030983        0.00012513
     182         -1.067610        1.000000        0.00248235        0.00191976        0.00046985
     183         -1.066240        1.000000        0.00009195        0.00029307        0.00008374
     184         -1.065124        1.000000        0.00038831        0.00432893        0.00148753
     185         -1.064565        1.000000        0.00000011        0.00237970        0.00091657
     186         -1.063575        1.000000        0.00005455        0.00017012        0.00008022
     187         -1.062901        1.000000        0.00321851        0.00529303        0.00243826
     188         -1.062274        1.000000        0.00040597        0.00312576        0.00128721
     189         -1.061481        1.000000        0.00004175        0.00257360        0.00107128
     190         -1.061312        1.000000        0.00078051        0.00021789        0.00002611
     191         -1.060592        1.000000        0.00137732        0.00107316        0.00056734
     192         -1.059297        1.000000        0.00159843        0.00011656        0.00001543
     193         -1.058643        1.000000        0.00146095        0.00041591        0.00031284
     194         -1.058262        1.000000        0.00029388        0.00129381        0.00045806
     195         -1.057127        1.000000        0.00003308        0.00127054        0.00053252
     196         -1.056224        1.000000        0.00001181        0.00021104        0.00009261
     197         -1.056050        1.000000        0.00008351        0.00121323        0.00049232
     198         -1.054881        1.000000        0.00070827        0.00035794        0.00018038
     199         -1.054669        1.000000        0.00086672        0.00184457        0.00063387
     200         -1.053605        1.000000        0.00061237        0.00018607        0.00016220
     201         -1.053457        1.000000        0.00093656        0.00240306        0.00078297
     202         -1.052589        1.000000        0.00016913        0.00027716        0.00011338
     203         -1.052089        1.000000        0.00110294        0.00281666        0.00090267
     204         -1.051299        1.000000        0.00253440        0.00615049        0.00247022
     205         -1.050676        1.000000        0.00355780        0.00679703        0.00278083
     206         -1.050307        1.000000        0.00011053        0.00032271        0.00012582
     207         -1.049921        1.000000        0.00000159        0.00028116        0.00006598
     208         -1.049485        1.000000        0.00223016        0.00834795        0.00345172
     209         -1.049126        1.000000        0.00010153        0.00086784        0.00033063
     210         -1.048445        1.000000        0.00021192        0.00046074        0.00015803
     211         -1.048201        1.000000        0.00029591        0.00066678        0.00029400
     212         -1.047911        1.000000        0.00123603        0.00197778        0.00071676
     213         -1.047620        1.000000        0.00031174        0.00231147        0.00092374
     214         -1.046931        1.000000        0.00011365        0.00043725        0.00019742
     215         -1.046733        1.000000        0.00098643        0.00368133        0.00165238
     216         -1.046634        1.000000        0.00000468        0.00019349        0.00009503
     217         -1.045930        1.000000        0.00000020        0.00067158        0.00023372
     218         -1.045069        1.000000        0.00009436        0.00144388        0.00060744
     219         -1.044350        1.000000        0.00014852        0.00048286        0.00024031
     220         -1.043623        1.000000        0.00000040        0.00004409        0.00001284
     221         -1.043421        1.000000        0.00000750        0.00027659        0.00011785
     222         -1.042778        1.000000        0.00058700        0.00107775        0.00023507
     223         -1.042701        1.000000        0.00004400        0.00090019        0.00027606
     224         -1.042424        1.000000        0.00000184        0.00027916        0.00012020
     225         -1.041682        1.000000        0.00001828        0.00026430        0.00008593
     226         -1.041498        1.000000        0.00000127        0.00008614        0.00003326
     227         -1.040837        1.000000        0.00005676        0.00022070        0.00005272
     228         -1.040496        1.000000        0.00015047        0.00010828        0.00005132
     229         -1.040151        1.000000        0.00004908        0.00045259        0.00012883
     230         -1.039686        1.000000        0.00039536        0.00059798        0.00018799
     231         -1.038961        1.000000        0.00000367        0.00012857        0.00004291
     232         -1.038553        1.000000        0.00008483        0.00043124        0.00019011
     233         -1.038476        1.000000        0.00000117        0.00014393        0.00005973
     234         -1.038152        1.000000        0.00001288        0.00017176        0.00007209
     235         -1.038041        1.000000        0.00000079        0.00021779        0.00008940
     236         -1.036855        1.000000        0.00001709        0.00007180        0.00003497
     237         -1.036488        1.000000        0.00000253        0.00189596        0.00076360
     238         -1.036186        1.000000        0.00026723        0.00310977        0.00116419
     239         -1.036068        1.000000        0.00006570        0.00150664        0.00061129
     240         -1.035757        1.000000        0.00000869        0.00007618        0.00002812
     241         -1.035291        1.000000        0.00001496        0.00005390        0.00002454
     242         -1.035048        1.000000        0.00011661        0.00131511        0.00054932
     243         -1.035000        1.000000        0.00027410        0.00395699        0.00142188
     244         -1.034454        1.000000        0.00001078        0.00156345        0.00065410
     245         -1.034219        1.000000        0.00002607        0.00047158        0.00015526
     246         -1.033874        1.000000        0.00003625        0.00066545        0.00023204
     247         -1.033507        1.000000        0.00058399        0.02488343        0.00958697
     248         -1.033219        1.000000        0.00001719        0.00212407        0.00086345
     249         -1.033056        1.000000        0.00005334        0.00413616        0.00180763
     250         -1.032307        1.000000        0.00000125        0.00014437        0.00005991
     251         -1.031324        1.000000        0.00015286        0.00649117        0.00253707
     252         -1.031144        1.000000        0.00053745        0.02404176        0.00942586
     253         -1.030643        1.000000        0.00000029        0.00038457        0.00015696
     254         -1.030284        1.000000        0.00003785        0.00383430        0.00153164
     255         -1.030062        1.000000        0.00000650        0.00057024        0.00023012
     256         -1.029818        1.000000        0.00000115        0.00012261        0.00004968
     257         -1.028552        1.000000        0.00018548        0.00989885        0.00412510
     258         -1.027578        1.000000        0.00000928        0.00047792        0.00023321
     259         -1.027121        1.000000        0.00000127        0.00106635        0.00048222
     260         -1.026880        1.000000        0.00000404        0.00789657        0.00367800
     261         -1.026226        1.000000        0.00004128        0.00467967        0.00193100
     262         -1.025765        1.000000        0.00008769        0.02876259        0.01306833
     263         -1.025299        1.000000        0.00000945        0.00036102        0.00015722
     264         -1.025158        1.000000        0.00005542        0.00089854        0.00035187
     265         -1.025007        1.000000        0.00003229        0.00035856        0.00013218
     266         -1.024422        1.000000        0.00001188        0.00091139        0.00039292
     267         -1.023793        1.000000        0.00067133        0.02898051        0.01185815
     268         -1.023594        1.000000        0.00000716        0.00045306        0.00019419
     269         -1.023069        1.000000        0.00003676        0.00293729        0.00130676
     270         -1.022603        1.000000        0.00001384        0.00048702        0.00022819
     271         -1.022074        1.000000        0.00000011        0.00001496        0.00000582
     272         -1.021695        1.000000        0.00000203        0.00034656        0.00016988
     273         -1.021372        1.000000        0.00003048        0.00051645        0.00022401
     274         -1.021076        1.000000        0.00000008        0.00001343        0.00000618
     275         -1.019492        1.000000        0.00000000        0.00010852        0.00005107
     276         -1.018003        1.000000        0.00002567        0.00759369        0.00368168
     277         -1.016408        1.000000        0.00000006        0.00001954        0.00000788
     278         -1.016278        1.000000        0.00000028        0.00037474        0.00014273
     279         -1.015338        1.000000        0.00000125        0.00004689        0.00001728
     280         -1.013851        1.000000        0.00000862        0.00121364        0.00062469
     281         -1.010223        1.000000        0.00000015        0.00000216        0.00000106
     282         -1.009666        1.000000        0.00060121        0.00980150        0.00387500
     283         -1.007726        1.000000        0.00000015        0.00000265        0.00000120
     284         -1.007300        1.000000        0.00002312        0.00072829        0.00033208
     285         -1.006916        1.000000        0.00343070        0.10822506        0.05030252
     286         -0.889442        1.000000        0.00000000        0.00000000        0.00000000
     287         -0.869424        1.000000        0.00000000        0.00000000        0.00000000
     288         -0.867225        1.000000        0.00000000        0.00000000        0.00000000
     289         -0.864755        1.000000        0.00000000        0.00000000        0.00000000
     290         -0.860947        1.000000        0.00000000        0.00000000        0.00000000
     291         -0.846899        1.000000        0.00000000        0.00000000        0.00000000
     292         -0.844423        1.000000        0.00000000        0.00000000        0.00000000
     293         -0.843782        1.000000        0.00000000        0.00000000        0.00000000
     294         -0.840445        1.000000        0.00000000        0.00000000        0.00000000
     295         -0.821748        1.000000        0.00000000        0.00000000        0.00000000
     296         -0.818927        1.000000        0.00000000        0.00000000        0.00000000
     297         -0.814033        1.000000        0.00000000        0.00000000        0.00000000
     298         -0.808071        1.000000        0.00000000        0.00000000        0.00000000
     299         -0.807076        1.000000        0.00000000        0.00000000        0.00000000
     300         -0.806003        1.000000        0.00000000        0.00000000        0.00000000
     301         -0.805433        1.000000        0.00000000        0.00000000        0.00000000
     302         -0.803208        1.000000        0.00000000        0.00000000        0.00000000
     303         -0.802271        1.000000        0.00000000        0.00000000        0.00000000
     304         -0.801014        1.000000        0.00000000        0.00000000        0.00000000
     305         -0.800419        1.000000        0.00000000        0.00000000        0.00000000
     306         -0.800163        1.000000        0.00000000        0.00000000        0.00000000
     307         -0.798966        1.000000        0.00000000        0.00000000        0.00000000