# Projected DOS for list 5 of 1 atoms, at iteration step i = 0, E(Fermi) =    -0.245567 a.u.
#     MO Eigenvalue [a.u.]      Occupation                 s                 p                 d
       1         -3.122063        1.000000        0.00000002        0.00000001        0.00000000
       2         -3.121278        1.000000        0.00000001        0.00000000        0.00000000
       3         -3.121021        1.000000        0.00000000        0.00000000        0.00000000
       4         -3.120578        1.000000        0.00000001        0.00000001        0.00000000
       5         -3.120271        1.000000        0.00000003        0.00000005        0.00000000
       6         -3.119857        1.000000        0.00000000        0.00000000        0.00000000
       7         -3.119652        1.000000        0.00000006        0.00000007        0.00000000
       8         -3.119624        1.000000        0.00000000        0.00000000        0.00000000
       9         -3.119219        1.000000        0.00000001        0.00000003        0.00000000
      10         -3.119023        1.000000        0.00000000        0.00000000        0.00000000
      11         -3.118913        1.000000        0.00000001        0.00000001        0.00000000
      12         -3.118874        1.000000        0.00000000        0.00000001        0.00000000
      13         -3.118317        1.000000        0.00000013        0.00000020        0.00000001
      14         -3.118249        1.000000        0.00000000        0.00000000        0.00000000
      15         -3.117895        1.000000        0.00000001        0.00000001        0.00000000
      16         -3.117383        1.000000        0.00000002        0.00000003        0.00000000
      17         -3.117165        1.000000        0.00000000        0.00000001        0.00000000
      18         -3.116815        1.000000        0.00000016        0.00000026        0.00000001
      19         -3.116436        1.000000        0.00000000        0.00000002        0.00000000
      20         -3.116021        1.000000        0.00000003        0.00000003        0.00000000
      21         -3.115852        1.000000        0.00000000        0.00000000        0.00000000
      22         -3.115668        1.000000        0.00000010        0.00000015        0.00000001
      23         -3.115368        1.000000        0.00000000        0.00000000        0.00000000
      24         -3.115339        1.000000        0.00000001        0.00000001        0.00000000
      25         -3.115041        1.000000        0.00000000        0.00000001        0.00000000
      26         -3.114366        1.000000        0.00000005        0.00000006        0.00000000
      27         -3.113951        1.000000        0.00000000        0.00000000        0.00000000
      28         -3.113764        1.000000        0.00000003        0.00000005        0.00000000
      29         -3.112534        1.000000        0.00000001        0.00000002        0.00000000
      30         -3.111679        1.000000        0.00000002        0.00000004        0.00000000
      31         -1.784233        1.000000        0.00000000        0.00000000        0.00000000
      32         -1.782870        1.000000        0.00000000        0.00000000        0.00000000
      33         -1.782324        1.000000        0.00000000        0.00000000        0.00000000
      34         -1.782130        1.000000        0.00000000        0.00000000        0.00000000
      35         -1.781736        1.000000        0.00000000        0.00000000        0.00000000
      36         -1.781230        1.000000        0.00000000        0.00000000        0.00000000
      37         -1.780847        1.000000        0.00000000        0.00000000        0.00000000
      38         -1.780487        1.000000        0.00000000        0.00000000        0.00000000
      39         -1.780184        1.000000        0.00000000        0.00000000        0.00000000
      40         -1.779550        1.000000        0.00000000        0.00000000        0.00000000
      41         -1.779259        1.000000        0.00000000        0.00000000        0.00000000
      42         -1.778921        1.000000        0.00000000        0.00000000        0.00000000
      43         -1.778390        1.000000        0.00000000        0.00000000        0.00000000
      44         -1.778140        1.000000        0.00000000        0.00000000        0.00000000
      45         -1.777912        1.000000        0.00000000        0.00000000        0.00000000
      46         -1.777514        1.000000        0.00000000        0.00000000        0.00000000
      47         -1.777362        1.000000        0.00000000        0.00000000        0.00000000
      48         -1.776787        1.000000        0.00000000        0.00000000        0.00000000
      49         -1.776537        1.000000        0.00000000        0.00000000        0.00000000
      50         -1.776457        1.000000        0.00000000        0.00000000        0.00000000
      51         -1.776029        1.000000        0.00000000        0.00000000        0.00000000
      52         -1.774038        1.000000        0.00000000        0.00000000        0.00000000
      53         -1.773797        1.000000        0.00000000        0.00000000        0.00000000
      54         -1.773665        1.000000        0.00000000        0.00000000        0.00000000
      55         -1.772725        1.000000        0.00000000        0.00000000        0.00000000
      56         -1.772546        1.000000        0.00000000        0.00000000        0.00000000
      57         -1.772041        1.000000        0.00000000        0.00000000        0.00000000
      58         -1.771662        1.000000        0.00000000        0.00000000        0.00000000
      59         -1.771364        1.000000        0.00000000        0.00000000        0.00000000
      60         -1.770813        1.000000        0.00000000        0.00000000        0.00000000
      61         -1.770640        1.000000        0.00000000        0.00000000        0.00000000
      62         -1.770449        1.000000        0.00000000        0.00000000        0.00000000
      63         -1.770188        1.000000        0.00000000        0.00000000        0.00000000
      64         -1.770126        1.000000        0.00000000        0.00000000        0.00000000
      65         -1.769991        1.000000        0.00000000        0.00000000        0.00000000
      66         -1.769845        1.000000        0.00000000        0.00000000        0.00000000
      67         -1.769763        1.000000        0.00000000        0.00000000        0.00000000
      68         -1.769661        1.000000        0.00000000        0.00000000        0.00000000
      69         -1.769465        1.000000        0.00000000        0.00000000        0.00000000
      70         -1.769351        1.000000        0.00000000        0.00000000        0.00000000
      71         -1.769328        1.000000        0.00000000        0.00000000        0.00000000
      72         -1.769216        1.000000        0.00000000        0.00000000        0.00000000
      73         -1.769129        1.000000        0.00000000        0.00000000        0.00000000
      74         -1.769070        1.000000        0.00000000        0.00000000        0.00000000
      75         -1.768941        1.000000        0.00000000        0.00000000        0.00000000
      76         -1.768822        1.000000        0.00000000        0.00000000        0.00000000
      77         -1.768707        1.000000        0.00000000        0.00000000        0.00000000
      78         -1.768585        1.000000        0.00000000        0.00000000        0.00000000
      79         -1.768439        1.000000        0.00000000        0.00000000        0.00000000
      80         -1.768329        1.000000        0.00000000        0.00000000        0.00000000
      81         -1.768089        1.000000        0.00000000        0.00000000        0.00000000
      82         -1.767883        1.000000        0.00000000        0.00000000        0.00000000
      83         -1.767662        1.000000        0.00000000        0.00000000        0.00000000
      84         -1.767495        1.000000        0.00000000        0.00000000        0.00000000
      85         -1.767311        1.000000        0.00000000        0.00000000        0.00000000
      86         -1.767266        1.000000        0.00000000        0.00000000        0.00000000
      87         -1.767060        1.000000        0.00000000        0.00000000        0.00000000
      88         -1.767025        1.000000        0.00000000        0.00000000        0.00000000
      89         -1.766872        1.000000        0.00000000        0.00000000        0.00000000
      90         -1.766524        1.000000        0.00000000        0.00000000        0.00000000
      91         -1.766405        1.000000        0.00000000        0.00000000        0.00000000
      92         -1.766254        1.000000        0.00000000        0.00000000        0.00000000
      93         -1.766123        1.000000        0.00000000        0.00000000        0.00000000
      94         -1.765857        1.000000        0.00000000        0.00000000        0.00000000
      95         -1.765515        1.000000        0.00000000        0.00000000        0.00000000
      96         -1.765181        1.000000        0.00000000        0.00000000        0.00000000
      97         -1.765105        1.000000        0.00000000        0.00000000        0.00000000
      98         -1.764967        1.000000        0.00000000        0.00000000        0.00000000
      99         -1.764710        1.000000        0.00000000        0.00000000        0.00000000
     100         -1.764440        1.000000        0.00000000        0.00000000        0.00000000
     101         -1.764248        1.000000        0.00000000        0.00000000        0.00000000
     102         -1.763945        1.000000        0.00000000        0.00000000        0.00000000
     103         -1.763804        1.000000        0.00000000        0.00000000        0.00000000
     104         -1.763351        1.000000        0.00000000        0.00000000        0.00000000
     105         -1.763205        1.000000        0.00000000        0.00000000        0.00000000
     106         -1.763107        1.000000        0.00000000        0.00000000        0.00000000
     107         -1.762531        1.000000        0.00000000        0.00000000        0.00000000
     108         -1.762343        1.000000        0.00000000        0.00000000        0.00000000
     109         -1.761453        1.000000        0.00000000        0.00000000        0.00000000
     110         -1.760969        1.000000        0.00000000        0.00000000        0.00000000
     111         -1.760481        1.000000        0.00000000        0.00000000        0.00000000
     112         -1.760009        1.000000        0.00000000        0.00000000        0.00000000
     113         -1.759531        1.000000        0.00000000        0.00000000        0.00000000
     114         -1.759105        1.000000        0.00000000        0.00000000        0.00000000
     115         -1.758777        1.000000        0.00000000        0.00000000        0.00000000
     116         -1.757462        1.000000        0.00000000        0.00000000        0.00000000
     117         -1.756221        1.000000        0.00000000        0.00000000        0.00000000
     118         -1.755333        1.000000        0.00000000        0.00000000        0.00000000
     119         -1.754385        1.000000        0.00000000        0.00000000        0.00000000
     120         -1.752742        1.000000        0.00000000        0.00000000        0.00000000
     121         -1.131181        1.000000        0.00038235        0.00011317        0.00002990
     122         -1.128658        1.000000        0.00007692        0.00013546        0.00003600
     123         -1.128000        1.000000        0.00005144        0.00000395        0.00000275
     124         -1.126427        1.000000        0.00000943        0.00004544        0.00000850
     125         -1.120469        1.000000        0.00119762        0.00033535        0.00010795
     126         -1.119202        1.000000        0.00016918        0.00008267        0.00002670
     127         -1.117081        1.000000        0.00172516        0.00023704        0.00009391
     128         -1.116156        1.000000        0.00255037        0.00061649        0.00010625
     129         -1.115054        1.000000        0.02171809        0.00727661        0.00256571
     130         -1.111818        1.000000        0.00000358        0.00014232        0.00005701
     131         -1.111610        1.000000        0.00067821        0.00033060        0.00011021
     132         -1.110976        1.000000        0.00000666        0.00012167        0.00003014
     133         -1.109888        1.000000        0.00006959        0.00034894        0.00005930
     134         -1.108601        1.000000        0.00020478        0.00094759        0.00022645
     135         -1.108036        1.000000        0.00227124        0.00044365        0.00007502
     136         -1.107349        1.000000        0.00967860        0.00221970        0.00091074
     137         -1.106797        1.000000        0.00117263        0.00182795        0.00055192
     138         -1.106077        1.000000        0.00984312        0.00055336        0.00033156
     139         -1.104162        1.000000        0.00016888        0.00244349        0.00069420
     140         -1.102892        1.000000        0.00794179        0.00063205        0.00036508
     141         -1.102196        1.000000        0.00311624        0.00014025        0.00008917
     142         -1.101581        1.000000        0.00298949        0.00123407        0.00021762
     143         -1.101215        1.000000        0.00434038        0.00077677        0.00035563
     144         -1.099602        1.000000        0.00274176        0.00523639        0.00149356
     145         -1.098107        1.000000        0.00394307        0.00163778        0.00052089
     146         -1.097450        1.000000        0.00483143        0.00054870        0.00010258
     147         -1.097046        1.000000        0.00261190        0.00183126        0.00076868
     148         -1.095795        1.000000        0.00040997        0.00167261        0.00057874
     149         -1.095192        1.000000        0.00008829        0.00233985        0.00070928
     150         -1.093515        1.000000        0.00067318        0.00048952        0.00012087
     151         -1.093123        1.000000        0.00682893        0.00259499        0.00080929
     152         -1.092614        1.000000        0.00785371        0.00087560        0.00025084
     153         -1.091821        1.000000        0.00133704        0.00150346        0.00043636
     154         -1.090761        1.000000        0.00381901        0.00055436        0.00037417
     155         -1.090597        1.000000        0.00000319        0.00184933        0.00050080
     156         -1.089544        1.000000        0.00431901        0.00297709        0.00110495
     157         -1.088154        1.000000        0.00119163        0.00134684        0.00044261
     158         -1.086960        1.000000        0.00036922        0.00011032        0.00003261
     159         -1.086718        1.000000        0.00003571        0.00075975        0.00024702
     160         -1.085525        1.000000        0.00006464        0.00186040        0.00064833
     161         -1.084219        1.000000        0.00041181        0.00142534        0.00050561
     162         -1.082734        1.000000        0.00005178        0.00006253        0.00003267
     163         -1.082381        1.000000        0.00307543        0.00170848        0.00088532
     164         -1.080807        1.000000        0.00136472        0.00165081        0.00065942
     165         -1.080293        1.000000        0.00000401        0.00116942        0.00032473
     166         -1.079453        1.000000        0.00624220        0.00912620        0.00334156
     167         -1.078246        1.000000        0.00005527        0.00071078        0.00022305
     168         -1.077774        1.000000        0.00002052        0.00087192        0.00027281
     169         -1.077143        1.000000        0.00050723        0.00261218        0.00115047
     170         -1.076426        1.000000        0.00005877        0.00228821        0.00087413
     171         -1.076145        1.000000        0.00034521        0.00292041        0.00096399
     172         -1.074526        1.000000        0.00000505        0.00120235        0.00047951
     173         -1.074368        1.000000        0.00002601        0.00097883        0.00036270
     174         -1.073652        1.000000        0.00000812        0.00742821        0.00245784
     175         -1.072808        1.000000        0.00005589        0.00410006        0.00144843
     176         -1.072152        1.000000        0.00020929        0.00030431        0.00018754
     177         -1.071192        1.000000        0.00000276        0.00296807        0.00123389
     178         -1.070444        1.000000        0.00096631        0.00315286        0.00150267
     179         -1.070141        1.000000        0.00122244        0.00722673        0.00260381
     180         -1.069416        1.000000        0.00002638        0.00208044        0.00075767
     181         -1.069179        1.000000        0.00001653        0.00112956        0.00051166
     182         -1.067610        1.000000        0.00101972        0.00093330        0.00029792
     183         -1.066240        1.000000        0.00163409        0.00976250        0.00368068
     184         -1.065124        1.000000        0.00027582        0.00410344        0.00139698
     185         -1.064565        1.000000        0.00212990        0.00100646        0.00044357
     186         -1.063575        1.000000        0.00194256        0.00127709        0.00052543
     187         -1.062901        1.000000        0.00001875        0.00312162        0.00101400
     188         -1.062274        1.000000        0.00000088        0.00120978        0.00048022
     189         -1.061481        1.000000        0.00058534        0.00090555        0.00031067
     190         -1.061312        1.000000        0.00000608        0.00049294        0.00017443
     191         -1.060592        1.000000        0.00125076        0.00182220        0.00068298
     192         -1.059297        1.000000        0.00020719        0.00070776        0.00025316
     193         -1.058643        1.000000        0.00035909        0.00152553        0.00063617
     194         -1.058262        1.000000        0.00003238        0.00551358        0.00202134
     195         -1.057127        1.000000        0.00011046        0.00246291        0.00113020
     196         -1.056224        1.000000        0.00005303        0.00130023        0.00049724
     197         -1.056050        1.000000        0.00026887        0.00002620        0.00002559
     198         -1.054881        1.000000        0.00008399        0.00127639        0.00050232
     199         -1.054669        1.000000        0.00001596        0.00095729        0.00038580
     200         -1.053605        1.000000        0.00008766        0.00013712        0.00005203
     201         -1.053457        1.000000        0.00008259        0.00036610        0.00015918
     202         -1.052589        1.000000        0.00000811        0.00041091        0.00014767
     203         -1.052089        1.000000        0.00031799        0.00109379        0.00043601
     204         -1.051299        1.000000        0.00000533        0.00095030        0.00041418
     205         -1.050676        1.000000        0.00001905        0.00099722        0.00038245
     206         -1.050307        1.000000        0.00012591        0.00390206        0.00149519
     207         -1.049921        1.000000        0.00001126        0.00035691        0.00018510
     208         -1.049485        1.000000        0.00002453        0.00134038        0.00039352
     209         -1.049126        1.000000        0.00006103        0.00259094        0.00106615
     210         -1.048445        1.000000        0.00000191        0.00974842        0.00335911
     211         -1.048201        1.000000        0.00002626        0.00258295        0.00079896
     212         -1.047911        1.000000        0.00002335        0.02056006        0.00742353
     213         -1.047620        1.000000        0.00000906        0.00274096        0.00110589
     214         -1.046931        1.000000        0.00000246        0.00920104        0.00375778
     215         -1.046733        1.000000        0.00000100        0.01264197        0.00526608
     216         -1.046634        1.000000        0.00000441        0.00742484        0.00270974
     217         -1.045930        1.000000        0.00000297        0.00156688        0.00060444
     218         -1.045069        1.000000        0.00005479        0.00212195        0.00070858
     219         -1.044350        1.000000        0.00001560        0.00090969        0.00034681
     220         -1.043623        1.000000        0.00048856        0.04039475        0.01443246
     221         -1.043421        1.000000        0.00011277        0.00480485        0.00208071
     222         -1.042778        1.000000        0.00002517        0.00077968        0.00026815
     223         -1.042701        1.000000        0.00001984        0.00222039        0.00108765
     224         -1.042424        1.000000        0.00002281        0.00695870        0.00346443
     225         -1.041682        1.000000        0.00029843        0.00538037        0.00195101
     226         -1.041498        1.000000        0.00004991        0.00383583        0.00139544
     227         -1.040837        1.000000        0.00016805        0.00511678        0.00243102
     228         -1.040496        1.000000        0.00000033        0.00223706        0.00101704
     229         -1.040151        1.000000        0.00003985        0.01595477        0.00791154
     230         -1.039686        1.000000        0.00000397        0.00022622        0.00008565
     231         -1.038961        1.000000        0.00000893        0.00120623        0.00056104
     232         -1.038553        1.000000        0.00000404        0.00080134        0.00040527
     233         -1.038476        1.000000        0.00003963        0.00296374        0.00134427
     234         -1.038152        1.000000        0.00000404        0.00254439        0.00133681
     235         -1.038041        1.000000        0.00000478        0.01018656        0.00522319
     236         -1.036855        1.000000        0.00003386        0.00547179        0.00287266
     237         -1.036488        1.000000        0.00001351        0.00127830        0.00070684
     238         -1.036186        1.000000        0.00000563        0.00007943        0.00002851
     239         -1.036068        1.000000        0.00000024        0.00003106        0.00001322
     240         -1.035757        1.000000        0.00000427        0.00116717        0.00061179
     241         -1.035291        1.000000        0.00000463        0.00118762        0.00071057
     242         -1.035048        1.000000        0.00002372        0.00135479        0.00063076
     243         -1.035000        1.000000        0.00000450        0.00075980        0.00038834
     244         -1.034454        1.000000        0.00000012        0.00093842        0.00049485
     245         -1.034219        1.000000        0.00000263        0.00048513        0.00030406
     246         -1.033874        1.000000        0.00002073        0.00050631        0.00031423
     247         -1.033507        1.000000        0.00000657        0.00015901        0.00008781
     248         -1.033219        1.000000        0.00001278        0.00303359        0.00166052
     249         -1.033056        1.000000        0.00000360        0.00047113        0.00031947
     250         -1.032307        1.000000        0.00000855        0.00015930        0.00004310
     251         -1.031324        1.000000        0.00006223        0.00254320        0.00119527
     252         -1.031144        1.000000        0.00001227        0.00044842        0.00019671
     253         -1.030643        1.000000        0.00000325        0.00066290        0.00023090
     254         -1.030284        1.000000        0.00002349        0.00169013        0.00092510
     255         -1.030062        1.000000        0.00000137        0.00015651        0.00010095
     256         -1.029818        1.000000        0.00019459        0.00522044        0.00244597
     257         -1.028552        1.000000        0.00001603        0.00109614        0.00051734
     258         -1.027578        1.000000        0.00003997        0.00285600        0.00126297
     259         -1.027121        1.000000        0.00001486        0.00046103        0.00022270
     260         -1.026880        1.000000        0.00005243        0.00064469        0.00029649
     261         -1.026226        1.000000        0.00010943        0.00325986        0.00155001
     262         -1.025765        1.000000        0.00002078        0.00082077        0.00040843
     263         -1.025299        1.000000        0.00000067        0.00000577        0.00000273
     264         -1.025158        1.000000        0.00013635        0.00529652        0.00267209
     265         -1.025007        1.000000        0.00001894        0.00128221        0.00064810
     266         -1.024422        1.000000        0.00123058        0.06838087        0.03414677
     267         -1.023793        1.000000        0.00000030        0.00007106        0.00003050
     268         -1.023594        1.000000        0.00007016        0.00580052        0.00291222
     269         -1.023069        1.000000        0.00003346        0.00379923        0.00184744
     270         -1.022603        1.000000        0.00000200        0.00009806        0.00005338
     271         -1.022074        1.000000        0.00020373        0.01101482        0.00551815
     272         -1.021695        1.000000        0.00005277        0.00316703        0.00156222
     273         -1.021372        1.000000        0.00000057        0.00000353        0.00000142
     274         -1.021076        1.000000        0.00011210        0.00305100        0.00137039
     275         -1.019492        1.000000        0.00000460        0.00117792        0.00060075
     276         -1.018003        1.000000        0.00003343        0.00104805        0.00056354
     277         -1.016408        1.000000        0.00000822        0.00033799        0.00018647
     278         -1.016278        1.000000        0.00000348        0.00045535        0.00024415
     279         -1.015338        1.000000        0.00000062        0.00000234        0.00000048
     280         -1.013851        1.000000        0.00000131        0.00034485        0.00017101
     281         -1.010223        1.000000        0.00000026        0.00001091        0.00000660
     282         -1.009666        1.000000        0.00000011        0.00000063        0.00000033
     283         -1.007726        1.000000        0.00001386        0.00026910        0.00013289
     284         -1.007300        1.000000        0.00000093        0.00002062        0.00001109
     285         -1.006916        1.000000        0.00000004        0.00000017        0.00000004
     286         -0.889442        1.000000        0.00000127        0.00000144        0.00000008
     287         -0.869424        1.000000        0.00000019        0.00000026        0.00000001
     288         -0.867225        1.000000        0.00000041        0.00000060        0.00000005
     289         -0.864755        1.000000        0.00000014        0.00000033        0.00000002
     290         -0.860947        1.000000        0.00000007        0.00000017        0.00000002
     291         -0.846899        1.000000        0.00000003        0.00000011        0.00000000
     292         -0.844423        1.000000        0.00000003        0.00000005        0.00000001
     293         -0.843782        1.000000        0.00000006        0.00000010        0.00000001
     294         -0.840445        1.000000        0.00000002        0.00000006        0.00000001
     295         -0.821748        1.000000        0.00000000        0.00000001        0.00000001
     296         -0.818927        1.000000        0.00000001        0.00000000        0.00000000
     297         -0.814033        1.000000        0.00000130        0.00000137        0.00000009
     298         -0.808071        1.000000        0.00000024        0.00000027        0.00000003
     299         -0.807076        1.000000        0.00000010        0.00000011        0.00000001
     300         -0.806003        1.000000        0.00000004        0.00000006        0.00000001
     301         -0.805433        1.000000        0.00000002        0.00000003        0.00000000
     302         -0.803208        1.000000        0.00000009        0.00000012        0.00000000
     303         -0.802271        1.000000        0.00000008        0.00000020        0.00000001
     304         -0.801014        1.000000        0.00000016        0.00000017        0.00000002
     305         -0.800419        1.000000        0.00000000        0.00000001        0.00000000
     306         -0.800163        1.000000        0.00000019        0.00000021        0.00000002
     307         -0.798966        1.000000        0.00000003        0.00000004        0.00000000