# Projected DOS for list 8 of 1 atoms, at iteration step i = 0, E(Fermi) =    -0.245567 a.u.
#     MO Eigenvalue [a.u.]      Occupation                 s                 p                 d
       1         -3.122063        1.000000        0.00000000        0.00000000        0.00000000
       2         -3.121278        1.000000        0.00000000        0.00000000        0.00000000
       3         -3.121021        1.000000        0.00000000        0.00000000        0.00000000
       4         -3.120578        1.000000        0.00000000        0.00000000        0.00000000
       5         -3.120271        1.000000        0.00000000        0.00000000        0.00000000
       6         -3.119857        1.000000        0.00000000        0.00000000        0.00000000
       7         -3.119652        1.000000        0.00000000        0.00000000        0.00000000
       8         -3.119624        1.000000        0.00000000        0.00000000        0.00000000
       9         -3.119219        1.000000        0.00000000        0.00000000        0.00000000
      10         -3.119023        1.000000        0.00000000        0.00000000        0.00000000
      11         -3.118913        1.000000        0.00000000        0.00000000        0.00000000
      12         -3.118874        1.000000        0.00000000        0.00000000        0.00000000
      13         -3.118317        1.000000        0.00000000        0.00000000        0.00000000
      14         -3.118249        1.000000        0.00000000        0.00000000        0.00000000
      15         -3.117895        1.000000        0.00000000        0.00000000        0.00000000
      16         -3.117383        1.000000        0.00000000        0.00000000        0.00000000
      17         -3.117165        1.000000        0.00000000        0.00000000        0.00000000
      18         -3.116815        1.000000        0.00000000        0.00000000        0.00000000
      19         -3.116436        1.000000        0.00000000        0.00000000        0.00000000
      20         -3.116021        1.000000        0.00000000        0.00000000        0.00000000
      21         -3.115852        1.000000        0.00000000        0.00000000        0.00000000
      22         -3.115668        1.000000        0.00000000        0.00000000        0.00000000
      23         -3.115368        1.000000        0.00000000        0.00000000        0.00000000
      24         -3.115339        1.000000        0.00000000        0.00000000        0.00000000
      25         -3.115041        1.000000        0.00000000        0.00000000        0.00000000
      26         -3.114366        1.000000        0.00000000        0.00000000        0.00000000
      27         -3.113951        1.000000        0.00000000        0.00000000        0.00000000
      28         -3.113764        1.000000        0.00000000        0.00000000        0.00000000
      29         -3.112534        1.000000        0.00000000        0.00000000        0.00000000
      30         -3.111679        1.000000        0.00000000        0.00000000        0.00000000
      31         -1.784233        1.000000        0.00000000        0.00000000        0.00000000
      32         -1.782870        1.000000        0.00000000        0.00000000        0.00000000
      33         -1.782324        1.000000        0.00000000        0.00000000        0.00000000
      34         -1.782130        1.000000        0.00000000        0.00000000        0.00000000
      35         -1.781736        1.000000        0.00000000        0.00000000        0.00000000
      36         -1.781230        1.000000        0.00000000        0.00000000        0.00000000
      37         -1.780847        1.000000        0.00000000        0.00000000        0.00000000
      38         -1.780487        1.000000        0.00000000        0.00000000        0.00000000
      39         -1.780184        1.000000        0.00000000        0.00000000        0.00000000
      40         -1.779550        1.000000        0.00000000        0.00000000        0.00000000
      41         -1.779259        1.000000        0.00000000        0.00000000        0.00000000
      42         -1.778921        1.000000        0.00000000        0.00000000        0.00000000
      43         -1.778390        1.000000        0.00000000        0.00000000        0.00000000
      44         -1.778140        1.000000        0.00000000        0.00000000        0.00000000
      45         -1.777912        1.000000        0.00000000        0.00000000        0.00000000
      46         -1.777514        1.000000        0.00000000        0.00000000        0.00000000
      47         -1.777362        1.000000        0.00000000        0.00000000        0.00000000
      48         -1.776787        1.000000        0.00000000        0.00000000        0.00000000
      49         -1.776537        1.000000        0.00000000        0.00000000        0.00000000
      50         -1.776457        1.000000        0.00000000        0.00000000        0.00000000
      51         -1.776029        1.000000        0.00000000        0.00000000        0.00000000
      52         -1.774038        1.000000        0.00000000        0.00000000        0.00000000
      53         -1.773797        1.000000        0.00000000        0.00000000        0.00000000
      54         -1.773665        1.000000        0.00000000        0.00000000        0.00000000
      55         -1.772725        1.000000        0.00000000        0.00000000        0.00000000
      56         -1.772546        1.000000        0.00000000        0.00000000        0.00000000
      57         -1.772041        1.000000        0.00000000        0.00000000        0.00000000
      58         -1.771662        1.000000        0.00000000        0.00000000        0.00000000
      59         -1.771364        1.000000        0.00000000        0.00000000        0.00000000
      60         -1.770813        1.000000        0.00000000        0.00000000        0.00000000
      61         -1.770640        1.000000        0.00000000        0.00000000        0.00000000
      62         -1.770449        1.000000        0.00000000        0.00000000        0.00000000
      63         -1.770188        1.000000        0.00000000        0.00000000        0.00000000
      64         -1.770126        1.000000        0.00000000        0.00000000        0.00000000
      65         -1.769991        1.000000        0.00000000        0.00000000        0.00000000
      66         -1.769845        1.000000        0.00000000        0.00000000        0.00000000
      67         -1.769763        1.000000        0.00000000        0.00000000        0.00000000
      68         -1.769661        1.000000        0.00000000        0.00000000        0.00000000
      69         -1.769465        1.000000        0.00000000        0.00000000        0.00000000
      70         -1.769351        1.000000        0.00000000        0.00000000        0.00000000
      71         -1.769328        1.000000        0.00000000        0.00000000        0.00000000
      72         -1.769216        1.000000        0.00000000        0.00000000        0.00000000
      73         -1.769129        1.000000        0.00000000        0.00000000        0.00000000
      74         -1.769070        1.000000        0.00000000        0.00000000        0.00000000
      75         -1.768941        1.000000        0.00000000        0.00000000        0.00000000
      76         -1.768822        1.000000        0.00000000        0.00000000        0.00000000
      77         -1.768707        1.000000        0.00000000        0.00000000        0.00000000
      78         -1.768585        1.000000        0.00000000        0.00000000        0.00000000
      79         -1.768439        1.000000        0.00000000        0.00000000        0.00000000
      80         -1.768329        1.000000        0.00000000        0.00000000        0.00000000
      81         -1.768089        1.000000        0.00000000        0.00000000        0.00000000
      82         -1.767883        1.000000        0.00000000        0.00000000        0.00000000
      83         -1.767662        1.000000        0.00000000        0.00000000        0.00000000
      84         -1.767495        1.000000        0.00000000        0.00000000        0.00000000
      85         -1.767311        1.000000        0.00000000        0.00000000        0.00000000
      86         -1.767266        1.000000        0.00000000        0.00000000        0.00000000
      87         -1.767060        1.000000        0.00000000        0.00000000        0.00000000
      88         -1.767025        1.000000        0.00000000        0.00000000        0.00000000
      89         -1.766872        1.000000        0.00000000        0.00000000        0.00000000
      90         -1.766524        1.000000        0.00000000        0.00000000        0.00000000
      91         -1.766405        1.000000        0.00000000        0.00000000        0.00000000
      92         -1.766254        1.000000        0.00000000        0.00000000        0.00000000
      93         -1.766123        1.000000        0.00000000        0.00000000        0.00000000
      94         -1.765857        1.000000        0.00000000        0.00000000        0.00000000
      95         -1.765515        1.000000        0.00000000        0.00000000        0.00000000
      96         -1.765181        1.000000        0.00000000        0.00000000        0.00000000
      97         -1.765105        1.000000        0.00000000        0.00000000        0.00000000
      98         -1.764967        1.000000        0.00000000        0.00000000        0.00000000
      99         -1.764710        1.000000        0.00000000        0.00000000        0.00000000
     100         -1.764440        1.000000        0.00000000        0.00000000        0.00000000
     101         -1.764248        1.000000        0.00000000        0.00000000        0.00000000
     102         -1.763945        1.000000        0.00000000        0.00000000        0.00000000
     103         -1.763804        1.000000        0.00000000        0.00000000        0.00000000
     104         -1.763351        1.000000        0.00000000        0.00000000        0.00000000
     105         -1.763205        1.000000        0.00000000        0.00000000        0.00000000
     106         -1.763107        1.000000        0.00000000        0.00000000        0.00000000
     107         -1.762531        1.000000        0.00000000        0.00000000        0.00000000
     108         -1.762343        1.000000        0.00000000        0.00000000        0.00000000
     109         -1.761453        1.000000        0.00000000        0.00000000        0.00000000
     110         -1.760969        1.000000        0.00000000        0.00000000        0.00000000
     111         -1.760481        1.000000        0.00000000        0.00000000        0.00000000
     112         -1.760009        1.000000        0.00000000        0.00000000        0.00000000
     113         -1.759531        1.000000        0.00000000        0.00000000        0.00000000
     114         -1.759105        1.000000        0.00000000        0.00000000        0.00000000
     115         -1.758777        1.000000        0.00000000        0.00000000        0.00000000
     116         -1.757462        1.000000        0.00000000        0.00000000        0.00000000
     117         -1.756221        1.000000        0.00000000        0.00000000        0.00000000
     118         -1.755333        1.000000        0.00000000        0.00000000        0.00000000
     119         -1.754385        1.000000        0.00000000        0.00000000        0.00000000
     120         -1.752742        1.000000        0.00000000        0.00000000        0.00000000
     121         -1.131181        1.000000        0.00022020        0.00001014        0.00000499
     122         -1.128658        1.000000        0.00000127        0.00000567        0.00000053
     123         -1.128000        1.000000        0.00000011        0.00002824        0.00000044
     124         -1.126427        1.000000        0.00050333        0.00006656        0.00001423
     125         -1.120469        1.000000        0.00571248        0.00029318        0.00014221
     126         -1.119202        1.000000        0.00000110        0.00024204        0.00000080
     127         -1.117081        1.000000        0.00191595        0.00013316        0.00002907
     128         -1.116156        1.000000        0.00524689        0.00026951        0.00012046
     129         -1.115054        1.000000        0.00338690        0.00019993        0.00003202
     130         -1.111818        1.000000        0.00006708        0.00004566        0.00000551
     131         -1.111610        1.000000        0.00018031        0.00005020        0.00000726
     132         -1.110976        1.000000        0.00409898        0.00050559        0.00007039
     133         -1.109888        1.000000        0.00226668        0.00015545        0.00004267
     134         -1.108601        1.000000        0.00873505        0.00069759        0.00013957
     135         -1.108036        1.000000        0.00473207        0.00024519        0.00006592
     136         -1.107349        1.000000        0.00134063        0.00012315        0.00004598
     137         -1.106797        1.000000        0.00407102        0.00069151        0.00009197
     138         -1.106077        1.000000        0.00000352        0.00015163        0.00002225
     139         -1.104162        1.000000        0.00918527        0.00027177        0.00013109
     140         -1.102892        1.000000        0.00352137        0.00046676        0.00005961
     141         -1.102196        1.000000        0.00149277        0.00030102        0.00004013
     142         -1.101581        1.000000        0.00540624        0.00023712        0.00007507
     143         -1.101215        1.000000        0.00251715        0.00015006        0.00003974
     144         -1.099602        1.000000        0.02408264        0.00091244        0.00029510
     145         -1.098107        1.000000        0.00956754        0.00041976        0.00016866
     146         -1.097450        1.000000        0.00720321        0.00125403        0.00013717
     147         -1.097046        1.000000        0.00448896        0.00026142        0.00004401
     148         -1.095795        1.000000        0.00553267        0.00017361        0.00006447
     149         -1.095192        1.000000        0.00194510        0.00010484        0.00003837
     150         -1.093515        1.000000        0.00271585        0.00007550        0.00002589
     151         -1.093123        1.000000        0.00417536        0.00015279        0.00006782
     152         -1.092614        1.000000        0.00223029        0.00005133        0.00005146
     153         -1.091821        1.000000        0.00162132        0.00012149        0.00001590
     154         -1.090761        1.000000        0.00000509        0.00009507        0.00001631
     155         -1.090597        1.000000        0.00129390        0.00010036        0.00002158
     156         -1.089544        1.000000        0.00961691        0.00072266        0.00005085
     157         -1.088154        1.000000        0.00298500        0.00054553        0.00004018
     158         -1.086960        1.000000        0.00298097        0.00016131        0.00002642
     159         -1.086718        1.000000        0.00101060        0.00005189        0.00001628
     160         -1.085525        1.000000        0.00471954        0.00027216        0.00002712
     161         -1.084219        1.000000        0.00533705        0.00025708        0.00005031
     162         -1.082734        1.000000        0.00019622        0.00009373        0.00001063
     163         -1.082381        1.000000        0.00070668        0.00014824        0.00003722
     164         -1.080807        1.000000        0.01007833        0.00033278        0.00006385
     165         -1.080293        1.000000        0.00331812        0.00007487        0.00002289
     166         -1.079453        1.000000        0.03574591        0.00053647        0.00025350
     167         -1.078246        1.000000        0.00219869        0.00006580        0.00003089
     168         -1.077774        1.000000        0.00060312        0.00027438        0.00003078
     169         -1.077143        1.000000        0.00153545        0.00016419        0.00004311
     170         -1.076426        1.000000        0.00047575        0.00100402        0.00002788
     171         -1.076145        1.000000        0.00342228        0.00019438        0.00001995
     172         -1.074526        1.000000        0.00099559        0.00049005        0.00001696
     173         -1.074368        1.000000        0.00322310        0.00007623        0.00001752
     174         -1.073652        1.000000        0.00060591        0.00080547        0.00001857
     175         -1.072808        1.000000        0.00606786        0.00063933        0.00006390
     176         -1.072152        1.000000        0.00307777        0.00004861        0.00003691
     177         -1.071192        1.000000        0.00827746        0.00067451        0.00004503
     178         -1.070444        1.000000        0.00408109        0.00081184        0.00003922
     179         -1.070141        1.000000        0.00044702        0.00009426        0.00003268
     180         -1.069416        1.000000        0.00853959        0.00023168        0.00008111
     181         -1.069179        1.000000        0.00202235        0.00037101        0.00002060
     182         -1.067610        1.000000        0.00347875        0.00028387        0.00002247
     183         -1.066240        1.000000        0.00284043        0.00167159        0.00010201
     184         -1.065124        1.000000        0.00033796        0.00006402        0.00000374
     185         -1.064565        1.000000        0.00909210        0.00035082        0.00003086
     186         -1.063575        1.000000        0.01342309        0.00075623        0.00002670
     187         -1.062901        1.000000        0.00003202        0.00016078        0.00001746
     188         -1.062274        1.000000        0.00059383        0.00020636        0.00003039
     189         -1.061481        1.000000        0.00533769        0.00033748        0.00000629
     190         -1.061312        1.000000        0.00036905        0.00012536        0.00003429
     191         -1.060592        1.000000        0.00386225        0.00093688        0.00003165
     192         -1.059297        1.000000        0.00002461        0.00016485        0.00001298
     193         -1.058643        1.000000        0.00296578        0.00048247        0.00007614
     194         -1.058262        1.000000        0.00314620        0.00004382        0.00002101
     195         -1.057127        1.000000        0.00225030        0.00005528        0.00000157
     196         -1.056224        1.000000        0.00080124        0.00002327        0.00000294
     197         -1.056050        1.000000        0.00334177        0.00005613        0.00000422
     198         -1.054881        1.000000        0.00105457        0.00001172        0.00000544
     199         -1.054669        1.000000        0.00003628        0.00013414        0.00000609
     200         -1.053605        1.000000        0.00000761        0.00007027        0.00000426
     201         -1.053457        1.000000        0.00032021        0.00002180        0.00001648
     202         -1.052589        1.000000        0.00125351        0.00004314        0.00001555
     203         -1.052089        1.000000        0.00045532        0.00025397        0.00000454
     204         -1.051299        1.000000        0.00049784        0.00007100        0.00003447
     205         -1.050676        1.000000        0.00009563        0.00002536        0.00003566
     206         -1.050307        1.000000        0.00036749        0.00019515        0.00012032
     207         -1.049921        1.000000        0.00011941        0.00000771        0.00000546
     208         -1.049485        1.000000        0.00003534        0.00007943        0.00006012
     209         -1.049126        1.000000        0.00035474        0.00001325        0.00002100
     210         -1.048445        1.000000        0.00017644        0.00000542        0.00000101
     211         -1.048201        1.000000        0.00234623        0.00008344        0.00005578
     212         -1.047911        1.000000        0.00010220        0.00001570        0.00000627
     213         -1.047620        1.000000        0.00033062        0.00001673        0.00000394
     214         -1.046931        1.000000        0.00020796        0.00002250        0.00000882
     215         -1.046733        1.000000        0.00000009        0.00005630        0.00001327
     216         -1.046634        1.000000        0.00002040        0.00001594        0.00002377
     217         -1.045930        1.000000        0.00058933        0.00003273        0.00002004
     218         -1.045069        1.000000        0.00148793        0.00003232        0.00000310
     219         -1.044350        1.000000        0.00051268        0.00000934        0.00000751
     220         -1.043623        1.000000        0.05180382        0.00058050        0.00012731
     221         -1.043421        1.000000        0.00011723        0.00001372        0.00000706
     222         -1.042778        1.000000        0.00112164        0.00001425        0.00000692
     223         -1.042701        1.000000        0.00061418        0.00007397        0.00001319
     224         -1.042424        1.000000        0.00658511        0.00010678        0.00004680
     225         -1.041682        1.000000        0.00136774        0.00023252        0.00003490
     226         -1.041498        1.000000        0.00004094        0.00012040        0.00003133
     227         -1.040837        1.000000        0.00762232        0.00010739        0.00001868
     228         -1.040496        1.000000        0.00122250        0.00002202        0.00001493
     229         -1.040151        1.000000        0.02878310        0.00035690        0.00004566
     230         -1.039686        1.000000        0.00000840        0.00002069        0.00001857
     231         -1.038961        1.000000        0.00074894        0.00002965        0.00001890
     232         -1.038553        1.000000        0.00190137        0.00003261        0.00001828
     233         -1.038476        1.000000        0.00173210        0.00012905        0.00003730
     234         -1.038152        1.000000        0.00120530        0.00003971        0.00003776
     235         -1.038041        1.000000        0.01187769        0.00015590        0.00002774
     236         -1.036855        1.000000        0.01383483        0.00018282        0.00002078
     237         -1.036488        1.000000        0.00663014        0.00007810        0.00000922
     238         -1.036186        1.000000        0.00000028        0.00001912        0.00000967
     239         -1.036068        1.000000        0.00132790        0.00002148        0.00004666
     240         -1.035757        1.000000        0.00504795        0.00011245        0.00003942
     241         -1.035291        1.000000        0.01023085        0.00012790        0.00000837
     242         -1.035048        1.000000        0.00000374        0.00012583        0.00002160
     243         -1.035000        1.000000        0.00037587        0.00002518        0.00004238
     244         -1.034454        1.000000        0.00131596        0.00001975        0.00000279
     245         -1.034219        1.000000        0.00053699        0.00005003        0.00002195
     246         -1.033874        1.000000        0.00039978        0.00005313        0.00002618
     247         -1.033507        1.000000        0.00002602        0.00001677        0.00000604
     248         -1.033219        1.000000        0.00088361        0.00009804        0.00006473
     249         -1.033056        1.000000        0.00010983        0.00003341        0.00001238
     250         -1.032307        1.000000        0.00001655        0.00014139        0.00009735
     251         -1.031324        1.000000        0.00177422        0.00004143        0.00000435
     252         -1.031144        1.000000        0.00259218        0.00005204        0.00001083
     253         -1.030643        1.000000        0.00038634        0.00014678        0.00008270
     254         -1.030284        1.000000        0.01291128        0.00034080        0.00007499
     255         -1.030062        1.000000        0.00055014        0.00002044        0.00002776
     256         -1.029818        1.000000        0.04410215        0.00129139        0.00019885
     257         -1.028552        1.000000        0.00199950        0.00004815        0.00002214
     258         -1.027578        1.000000        0.00013231        0.00003291        0.00000990
     259         -1.027121        1.000000        0.00074907        0.00002551        0.00002830
     260         -1.026880        1.000000        0.00396502        0.00021940        0.00009399
     261         -1.026226        1.000000        0.00173031        0.00010152        0.00006588
     262         -1.025765        1.000000        0.00023638        0.00000828        0.00000119
     263         -1.025299        1.000000        0.00021137        0.00001057        0.00000270
     264         -1.025158        1.000000        0.00042744        0.00003074        0.00000160
     265         -1.025007        1.000000        0.00011397        0.00012423        0.00010342
     266         -1.024422        1.000000        0.00036659        0.00005413        0.00003831
     267         -1.023793        1.000000        0.00007731        0.00005548        0.00000811
     268         -1.023594        1.000000        0.00000091        0.00000483        0.00000421
     269         -1.023069        1.000000        0.00026537        0.00039491        0.00008116
     270         -1.022603        1.000000        0.00462020        0.00006303        0.00016658
     271         -1.022074        1.000000        0.00000048        0.00006163        0.00005714
     272         -1.021695        1.000000        0.00024784        0.00004145        0.00003130
     273         -1.021372        1.000000        0.00000944        0.00000081        0.00000049
     274         -1.021076        1.000000        0.00000193        0.00002945        0.00002630
     275         -1.019492        1.000000        0.00199442        0.00025733        0.00015586
     276         -1.018003        1.000000        0.00004997        0.00000713        0.00000301
     277         -1.016408        1.000000        0.00048437        0.00005441        0.00003022
     278         -1.016278        1.000000        0.00017986        0.00002943        0.00000780
     279         -1.015338        1.000000        0.00002807        0.00000094        0.00000044
     280         -1.013851        1.000000        0.00000373        0.00000206        0.00000028
     281         -1.010223        1.000000        0.00004832        0.00000723        0.00000327
     282         -1.009666        1.000000        0.00000018        0.00000001        0.00000000
     283         -1.007726        1.000000        0.00186962        0.00020787        0.00007096
     284         -1.007300        1.000000        0.00032279        0.00001725        0.00000752
     285         -1.006916        1.000000        0.00001141        0.00000039        0.00000008
     286         -0.889442        1.000000        0.00000001        0.00000000        0.00000000
     287         -0.869424        1.000000        0.00000001        0.00000000        0.00000000
     288         -0.867225        1.000000        0.00000000        0.00000000        0.00000000
     289         -0.864755        1.000000        0.00000000        0.00000000        0.00000000
     290         -0.860947        1.000000        0.00000000        0.00000000        0.00000000
     291         -0.846899        1.000000        0.00000000        0.00000000        0.00000000
     292         -0.844423        1.000000        0.00000000        0.00000000        0.00000000
     293         -0.843782        1.000000        0.00000000        0.00000000        0.00000000
     294         -0.840445        1.000000        0.00000000        0.00000000        0.00000000
     295         -0.821748        1.000000        0.00000000        0.00000000        0.00000000
     296         -0.818927        1.000000        0.00000000        0.00000000        0.00000000
     297         -0.814033        1.000000        0.00000001        0.00000000        0.00000000
     298         -0.808071        1.000000        0.00000000        0.00000000        0.00000000
     299         -0.807076        1.000000        0.00000000        0.00000000        0.00000000
     300         -0.806003        1.000000        0.00000000        0.00000000        0.00000000
     301         -0.805433        1.000000        0.00000000        0.00000000        0.00000000
     302         -0.803208        1.000000        0.00000000        0.00000000        0.00000000
     303         -0.802271        1.000000        0.00000000        0.00000000        0.00000000
     304         -0.801014        1.000000        0.00000000        0.00000000        0.00000000
     305         -0.800419        1.000000        0.00000000        0.00000000        0.00000000
     306         -0.800163        1.000000        0.00000000        0.00000000        0.00000000
     307         -0.798966        1.000000        0.00000000        0.00000000        0.00000000