# Projected DOS for list 10 of 1 atoms, at iteration step i = 0, E(Fermi) =    -0.245567 a.u.
#     MO Eigenvalue [a.u.]      Occupation                 s                 p                 d
       1         -3.122063        1.000000        0.00000000        0.00000000        0.00000000
       2         -3.121278        1.000000        0.00000000        0.00000000        0.00000000
       3         -3.121021        1.000000        0.00000000        0.00000000        0.00000000
       4         -3.120578        1.000000        0.00000000        0.00000000        0.00000000
       5         -3.120271        1.000000        0.00000000        0.00000000        0.00000000
       6         -3.119857        1.000000        0.00000000        0.00000000        0.00000000
       7         -3.119652        1.000000        0.00000001        0.00000000        0.00000000
       8         -3.119624        1.000000        0.00000000        0.00000000        0.00000000
       9         -3.119219        1.000000        0.00000000        0.00000001        0.00000000
      10         -3.119023        1.000000        0.00000000        0.00000000        0.00000000
      11         -3.118913        1.000000        0.00000000        0.00000000        0.00000000
      12         -3.118874        1.000000        0.00000000        0.00000000        0.00000000
      13         -3.118317        1.000000        0.00000002        0.00000002        0.00000000
      14         -3.118249        1.000000        0.00000000        0.00000000        0.00000000
      15         -3.117895        1.000000        0.00000000        0.00000000        0.00000000
      16         -3.117383        1.000000        0.00000000        0.00000000        0.00000000
      17         -3.117165        1.000000        0.00000000        0.00000000        0.00000000
      18         -3.116815        1.000000        0.00000002        0.00000002        0.00000000
      19         -3.116436        1.000000        0.00000000        0.00000001        0.00000000
      20         -3.116021        1.000000        0.00000000        0.00000000        0.00000000
      21         -3.115852        1.000000        0.00000000        0.00000000        0.00000000
      22         -3.115668        1.000000        0.00000001        0.00000001        0.00000000
      23         -3.115368        1.000000        0.00000000        0.00000000        0.00000000
      24         -3.115339        1.000000        0.00000000        0.00000000        0.00000000
      25         -3.115041        1.000000        0.00000000        0.00000000        0.00000000
      26         -3.114366        1.000000        0.00000001        0.00000001        0.00000000
      27         -3.113951        1.000000        0.00000000        0.00000000        0.00000000
      28         -3.113764        1.000000        0.00000000        0.00000001        0.00000000
      29         -3.112534        1.000000        0.00000000        0.00000000        0.00000000
      30         -3.111679        1.000000        0.00000000        0.00000000        0.00000000
      31         -1.784233        1.000000        0.00000000        0.00000000        0.00000000
      32         -1.782870        1.000000        0.00000000        0.00000000        0.00000000
      33         -1.782324        1.000000        0.00000000        0.00000000        0.00000000
      34         -1.782130        1.000000        0.00000000        0.00000000        0.00000000
      35         -1.781736        1.000000        0.00000000        0.00000000        0.00000000
      36         -1.781230        1.000000        0.00000000        0.00000000        0.00000000
      37         -1.780847        1.000000        0.00000000        0.00000000        0.00000000
      38         -1.780487        1.000000        0.00000000        0.00000000        0.00000000
      39         -1.780184        1.000000        0.00000000        0.00000000        0.00000000
      40         -1.779550        1.000000        0.00000000        0.00000000        0.00000000
      41         -1.779259        1.000000        0.00000000        0.00000000        0.00000000
      42         -1.778921        1.000000        0.00000000        0.00000000        0.00000000
      43         -1.778390        1.000000        0.00000000        0.00000000        0.00000000
      44         -1.778140        1.000000        0.00000000        0.00000000        0.00000000
      45         -1.777912        1.000000        0.00000000        0.00000000        0.00000000
      46         -1.777514        1.000000        0.00000000        0.00000000        0.00000000
      47         -1.777362        1.000000        0.00000000        0.00000000        0.00000000
      48         -1.776787        1.000000        0.00000000        0.00000000        0.00000000
      49         -1.776537        1.000000        0.00000000        0.00000000        0.00000000
      50         -1.776457        1.000000        0.00000000        0.00000000        0.00000000
      51         -1.776029        1.000000        0.00000000        0.00000000        0.00000000
      52         -1.774038        1.000000        0.00000000        0.00000000        0.00000000
      53         -1.773797        1.000000        0.00000000        0.00000000        0.00000000
      54         -1.773665        1.000000        0.00000000        0.00000000        0.00000000
      55         -1.772725        1.000000        0.00000000        0.00000000        0.00000000
      56         -1.772546        1.000000        0.00000000        0.00000000        0.00000000
      57         -1.772041        1.000000        0.00000000        0.00000000        0.00000000
      58         -1.771662        1.000000        0.00000000        0.00000000        0.00000000
      59         -1.771364        1.000000        0.00000000        0.00000000        0.00000000
      60         -1.770813        1.000000        0.00000000        0.00000000        0.00000000
      61         -1.770640        1.000000        0.00000000        0.00000000        0.00000000
      62         -1.770449        1.000000        0.00000000        0.00000000        0.00000000
      63         -1.770188        1.000000        0.00000000        0.00000000        0.00000000
      64         -1.770126        1.000000        0.00000000        0.00000000        0.00000000
      65         -1.769991        1.000000        0.00000000        0.00000000        0.00000000
      66         -1.769845        1.000000        0.00000000        0.00000000        0.00000000
      67         -1.769763        1.000000        0.00000000        0.00000000        0.00000000
      68         -1.769661        1.000000        0.00000000        0.00000000        0.00000000
      69         -1.769465        1.000000        0.00000000        0.00000000        0.00000000
      70         -1.769351        1.000000        0.00000000        0.00000000        0.00000000
      71         -1.769328        1.000000        0.00000000        0.00000000        0.00000000
      72         -1.769216        1.000000        0.00000000        0.00000000        0.00000000
      73         -1.769129        1.000000        0.00000000        0.00000000        0.00000000
      74         -1.769070        1.000000        0.00000000        0.00000000        0.00000000
      75         -1.768941        1.000000        0.00000000        0.00000000        0.00000000
      76         -1.768822        1.000000        0.00000000        0.00000000        0.00000000
      77         -1.768707        1.000000        0.00000000        0.00000000        0.00000000
      78         -1.768585        1.000000        0.00000000        0.00000000        0.00000000
      79         -1.768439        1.000000        0.00000000        0.00000000        0.00000000
      80         -1.768329        1.000000        0.00000000        0.00000000        0.00000000
      81         -1.768089        1.000000        0.00000000        0.00000000        0.00000000
      82         -1.767883        1.000000        0.00000000        0.00000000        0.00000000
      83         -1.767662        1.000000        0.00000000        0.00000000        0.00000000
      84         -1.767495        1.000000        0.00000000        0.00000000        0.00000000
      85         -1.767311        1.000000        0.00000000        0.00000000        0.00000000
      86         -1.767266        1.000000        0.00000000        0.00000000        0.00000000
      87         -1.767060        1.000000        0.00000000        0.00000000        0.00000000
      88         -1.767025        1.000000        0.00000000        0.00000000        0.00000000
      89         -1.766872        1.000000        0.00000000        0.00000000        0.00000000
      90         -1.766524        1.000000        0.00000000        0.00000000        0.00000000
      91         -1.766405        1.000000        0.00000000        0.00000000        0.00000000
      92         -1.766254        1.000000        0.00000000        0.00000000        0.00000000
      93         -1.766123        1.000000        0.00000000        0.00000000        0.00000000
      94         -1.765857        1.000000        0.00000000        0.00000000        0.00000000
      95         -1.765515        1.000000        0.00000000        0.00000000        0.00000000
      96         -1.765181        1.000000        0.00000000        0.00000000        0.00000000
      97         -1.765105        1.000000        0.00000000        0.00000000        0.00000000
      98         -1.764967        1.000000        0.00000000        0.00000000        0.00000000
      99         -1.764710        1.000000        0.00000000        0.00000000        0.00000000
     100         -1.764440        1.000000        0.00000000        0.00000000        0.00000000
     101         -1.764248        1.000000        0.00000000        0.00000000        0.00000000
     102         -1.763945        1.000000        0.00000000        0.00000000        0.00000000
     103         -1.763804        1.000000        0.00000000        0.00000000        0.00000000
     104         -1.763351        1.000000        0.00000000        0.00000000        0.00000000
     105         -1.763205        1.000000        0.00000000        0.00000000        0.00000000
     106         -1.763107        1.000000        0.00000000        0.00000000        0.00000000
     107         -1.762531        1.000000        0.00000000        0.00000000        0.00000000
     108         -1.762343        1.000000        0.00000000        0.00000000        0.00000000
     109         -1.761453        1.000000        0.00000000        0.00000000        0.00000000
     110         -1.760969        1.000000        0.00000000        0.00000000        0.00000000
     111         -1.760481        1.000000        0.00000000        0.00000000        0.00000000
     112         -1.760009        1.000000        0.00000000        0.00000000        0.00000000
     113         -1.759531        1.000000        0.00000000        0.00000000        0.00000000
     114         -1.759105        1.000000        0.00000000        0.00000000        0.00000000
     115         -1.758777        1.000000        0.00000000        0.00000000        0.00000000
     116         -1.757462        1.000000        0.00000000        0.00000000        0.00000000
     117         -1.756221        1.000000        0.00000000        0.00000000        0.00000000
     118         -1.755333        1.000000        0.00000000        0.00000000        0.00000000
     119         -1.754385        1.000000        0.00000000        0.00000000        0.00000000
     120         -1.752742        1.000000        0.00000000        0.00000000        0.00000000
     121         -1.131181        1.000000        0.00020599        0.00000780        0.00000973
     122         -1.128658        1.000000        0.00001455        0.00000670        0.00000129
     123         -1.128000        1.000000        0.00003805        0.00000175        0.00000163
     124         -1.126427        1.000000        0.00001011        0.00000204        0.00000041
     125         -1.120469        1.000000        0.00027396        0.00009149        0.00000981
     126         -1.119202        1.000000        0.00001091        0.00003736        0.00000039
     127         -1.117081        1.000000        0.00065641        0.00007978        0.00002170
     128         -1.116156        1.000000        0.00264405        0.00013493        0.00007924
     129         -1.115054        1.000000        0.00819458        0.00107981        0.00035394
     130         -1.111818        1.000000        0.00010294        0.00007002        0.00000390
     131         -1.111610        1.000000        0.00025159        0.00004691        0.00000917
     132         -1.110976        1.000000        0.00002805        0.00002732        0.00000288
     133         -1.109888        1.000000        0.00054097        0.00010526        0.00002236
     134         -1.108601        1.000000        0.00065233        0.00009298        0.00001456
     135         -1.108036        1.000000        0.00326065        0.00012284        0.00009585
     136         -1.107349        1.000000        0.00615691        0.00035405        0.00019652
     137         -1.106797        1.000000        0.00001097        0.00044565        0.00000910
     138         -1.106077        1.000000        0.00710576        0.00031174        0.00021630
     139         -1.104162        1.000000        0.00188048        0.00123050        0.00007810
     140         -1.102892        1.000000        0.00258953        0.00085177        0.00008503
     141         -1.102196        1.000000        0.00246945        0.00012941        0.00005871
     142         -1.101581        1.000000        0.00549946        0.00021527        0.00012396
     143         -1.101215        1.000000        0.00073783        0.00081102        0.00001972
     144         -1.099602        1.000000        0.00261942        0.00011416        0.00006835
     145         -1.098107        1.000000        0.00209933        0.00032717        0.00005517
     146         -1.097450        1.000000        0.00650069        0.00014541        0.00015441
     147         -1.097046        1.000000        0.00004723        0.00150038        0.00007581
     148         -1.095795        1.000000        0.00097136        0.00097942        0.00004552
     149         -1.095192        1.000000        0.00243817        0.00114316        0.00010782
     150         -1.093515        1.000000        0.00104819        0.00001053        0.00003868
     151         -1.093123        1.000000        0.00642284        0.00040204        0.00013863
     152         -1.092614        1.000000        0.00934414        0.00035839        0.00017499
     153         -1.091821        1.000000        0.00200054        0.00009508        0.00002731
     154         -1.090761        1.000000        0.00074570        0.00086322        0.00004596
     155         -1.090597        1.000000        0.00005957        0.00001022        0.00002332
     156         -1.089544        1.000000        0.00406298        0.00032121        0.00005780
     157         -1.088154        1.000000        0.00023870        0.00018146        0.00006034
     158         -1.086960        1.000000        0.00098288        0.00001010        0.00003255
     159         -1.086718        1.000000        0.00011224        0.00009189        0.00000265
     160         -1.085525        1.000000        0.00001059        0.00003369        0.00000838
     161         -1.084219        1.000000        0.00008227        0.00015480        0.00001114
     162         -1.082734        1.000000        0.00004554        0.00000447        0.00001155
     163         -1.082381        1.000000        0.00050563        0.00097921        0.00004605
     164         -1.080807        1.000000        0.00102969        0.00025469        0.00004807
     165         -1.080293        1.000000        0.00152190        0.00026938        0.00003929
     166         -1.079453        1.000000        0.00571297        0.00119532        0.00015464
     167         -1.078246        1.000000        0.00076707        0.00002411        0.00003048
     168         -1.077774        1.000000        0.00002985        0.00001731        0.00001304
     169         -1.077143        1.000000        0.00039644        0.00083597        0.00003473
     170         -1.076426        1.000000        0.00002360        0.00004367        0.00002091
     171         -1.076145        1.000000        0.00111679        0.00003972        0.00004706
     172         -1.074526        1.000000        0.00013629        0.00000369        0.00001218
     173         -1.074368        1.000000        0.00165888        0.00036773        0.00003679
     174         -1.073652        1.000000        0.00000960        0.00007779        0.00004986
     175         -1.072808        1.000000        0.00108727        0.00018128        0.00001870
     176         -1.072152        1.000000        0.00008223        0.00024387        0.00000514
     177         -1.071192        1.000000        0.00105797        0.00013108        0.00004489
     178         -1.070444        1.000000        0.00440544        0.00004605        0.00009703
     179         -1.070141        1.000000        0.00163684        0.00005429        0.00008300
     180         -1.069416        1.000000        0.00007674        0.00002351        0.00001692
     181         -1.069179        1.000000        0.00006347        0.00000985        0.00001042
     182         -1.067610        1.000000        0.00099453        0.00014617        0.00002699
     183         -1.066240        1.000000        0.00017659        0.00067618        0.00010535
     184         -1.065124        1.000000        0.00343793        0.00093341        0.00004960
     185         -1.064565        1.000000        0.00016499        0.00077466        0.00002378
     186         -1.063575        1.000000        0.00426661        0.00015714        0.00005921
     187         -1.062901        1.000000        0.00584682        0.00055893        0.00009101
     188         -1.062274        1.000000        0.00042082        0.00002123        0.00001263
     189         -1.061481        1.000000        0.00244859        0.00003322        0.00002502
     190         -1.061312        1.000000        0.00028117        0.00005243        0.00000263
     191         -1.060592        1.000000        0.00276362        0.00016370        0.00004121
     192         -1.059297        1.000000        0.00049504        0.00005187        0.00000581
     193         -1.058643        1.000000        0.00012254        0.00020790        0.00000357
     194         -1.058262        1.000000        0.00266235        0.00032661        0.00003646
     195         -1.057127        1.000000        0.00035815        0.00028446        0.00003839
     196         -1.056224        1.000000        0.00224323        0.00010902        0.00001339
     197         -1.056050        1.000000        0.00002996        0.00011086        0.00000040
     198         -1.054881        1.000000        0.00043425        0.00001631        0.00001489
     199         -1.054669        1.000000        0.00020885        0.00000937        0.00001157
     200         -1.053605        1.000000        0.00000131        0.00007061        0.00003651
     201         -1.053457        1.000000        0.00007482        0.00002102        0.00001872
     202         -1.052589        1.000000        0.00001699        0.00000441        0.00000202
     203         -1.052089        1.000000        0.00037509        0.00012274        0.00004745
     204         -1.051299        1.000000        0.00083827        0.00010605        0.00000639
     205         -1.050676        1.000000        0.00038148        0.00001333        0.00000393
     206         -1.050307        1.000000        0.00027989        0.00013567        0.00003641
     207         -1.049921        1.000000        0.00040520        0.00007825        0.00000850
     208         -1.049485        1.000000        0.00223179        0.00005527        0.00001999
     209         -1.049126        1.000000        0.00014417        0.00005861        0.00001651
     210         -1.048445        1.000000        0.00312205        0.00013536        0.00006986
     211         -1.048201        1.000000        0.00146407        0.00010055        0.00002304
     212         -1.047911        1.000000        0.00239078        0.00020110        0.00013886
     213         -1.047620        1.000000        0.00000399        0.00005359        0.00001347
     214         -1.046931        1.000000        0.00000154        0.00010357        0.00008676
     215         -1.046733        1.000000        0.00000561        0.00014124        0.00011943
     216         -1.046634        1.000000        0.00014122        0.00006853        0.00008077
     217         -1.045930        1.000000        0.00003829        0.00002357        0.00002499
     218         -1.045069        1.000000        0.00000125        0.00002890        0.00002024
     219         -1.044350        1.000000        0.00000051        0.00000303        0.00001266
     220         -1.043623        1.000000        0.00005386        0.00040125        0.00030424
     221         -1.043421        1.000000        0.00052635        0.00005073        0.00006392
     222         -1.042778        1.000000        0.00000239        0.00000927        0.00000905
     223         -1.042701        1.000000        0.00001087        0.00002669        0.00000840
     224         -1.042424        1.000000        0.00015450        0.00003238        0.00004784
     225         -1.041682        1.000000        0.00071455        0.00011961        0.00006048
     226         -1.041498        1.000000        0.00015843        0.00010422        0.00003072
     227         -1.040837        1.000000        0.00191585        0.00008966        0.00016399
     228         -1.040496        1.000000        0.00005287        0.00004285        0.00001896
     229         -1.040151        1.000000        0.00011385        0.00006431        0.00012286
     230         -1.039686        1.000000        0.00008006        0.00001786        0.00000806
     231         -1.038961        1.000000        0.00020121        0.00004501        0.00001887
     232         -1.038553        1.000000        0.00024991        0.00001003        0.00001032
     233         -1.038476        1.000000        0.00009475        0.00006330        0.00002699
     234         -1.038152        1.000000        0.00000269        0.00000934        0.00002119
     235         -1.038041        1.000000        0.00000107        0.00008845        0.00005393
     236         -1.036855        1.000000        0.00000123        0.00006206        0.00006215
     237         -1.036488        1.000000        0.00006320        0.00004624        0.00001801
     238         -1.036186        1.000000        0.00001960        0.00000431        0.00000023
     239         -1.036068        1.000000        0.00001605        0.00000093        0.00000078
     240         -1.035757        1.000000        0.00205500        0.00003403        0.00004794
     241         -1.035291        1.000000        0.00049339        0.00005954        0.00010538
     242         -1.035048        1.000000        0.00090298        0.00009283        0.00003895
     243         -1.035000        1.000000        0.00076142        0.00003721        0.00005232
     244         -1.034454        1.000000        0.00066044        0.00002806        0.00006179
     245         -1.034219        1.000000        0.00104726        0.00005481        0.00007806
     246         -1.033874        1.000000        0.00052412        0.00001066        0.00001245
     247         -1.033507        1.000000        0.00000158        0.00000114        0.00000239
     248         -1.033219        1.000000        0.00005685        0.00003441        0.00002385
     249         -1.033056        1.000000        0.00042120        0.00000509        0.00001094
     250         -1.032307        1.000000        0.00005898        0.00000409        0.00000612
     251         -1.031324        1.000000        0.00797947        0.00008499        0.00002851
     252         -1.031144        1.000000        0.00124060        0.00000886        0.00000312
     253         -1.030643        1.000000        0.00083951        0.00000758        0.00000880
     254         -1.030284        1.000000        0.00000731        0.00000798        0.00001948
     255         -1.030062        1.000000        0.00009575        0.00000230        0.00000109
     256         -1.029818        1.000000        0.00128409        0.00003115        0.00005248
     257         -1.028552        1.000000        0.00235609        0.00001214        0.00000689
     258         -1.027578        1.000000        0.00774907        0.00005530        0.00000654
     259         -1.027121        1.000000        0.00117437        0.00000775        0.00000177
     260         -1.026880        1.000000        0.00001894        0.00001055        0.00000750
     261         -1.026226        1.000000        0.01163952        0.00004486        0.00002849
     262         -1.025765        1.000000        0.00292442        0.00001860        0.00000468
     263         -1.025299        1.000000        0.00000002        0.00000017        0.00000006
     264         -1.025158        1.000000        0.01970065        0.00008397        0.00002331
     265         -1.025007        1.000000        0.00443810        0.00002077        0.00001448
     266         -1.024422        1.000000        0.24590220        0.00108944        0.00028212
     267         -1.023793        1.000000        0.00019541        0.00000223        0.00000087
     268         -1.023594        1.000000        0.01957828        0.00010067        0.00003185
     269         -1.023069        1.000000        0.01265877        0.00006700        0.00002771
     270         -1.022603        1.000000        0.00009945        0.00000612        0.00000373
     271         -1.022074        1.000000        0.03913822        0.00018822        0.00002565
     272         -1.021695        1.000000        0.01121848        0.00004922        0.00000802
     273         -1.021372        1.000000        0.00001281        0.00000032        0.00000010
     274         -1.021076        1.000000        0.01093119        0.00005666        0.00001181
     275         -1.019492        1.000000        0.00254916        0.00001594        0.00000636
     276         -1.018003        1.000000        0.00416373        0.00002325        0.00001845
     277         -1.016408        1.000000        0.00087043        0.00001187        0.00000095
     278         -1.016278        1.000000        0.00161866        0.00000758        0.00000437
     279         -1.015338        1.000000        0.00000126        0.00000031        0.00000014
     280         -1.013851        1.000000        0.00070272        0.00000415        0.00000073
     281         -1.010223        1.000000        0.00000826        0.00000002        0.00000011
     282         -1.009666        1.000000        0.00000044        0.00000003        0.00000003
     283         -1.007726        1.000000        0.00017472        0.00000511        0.00000195
     284         -1.007300        1.000000        0.00001522        0.00000032        0.00000015
     285         -1.006916        1.000000        0.00000018        0.00000003        0.00000002
     286         -0.889442        1.000000        0.00000022        0.00000020        0.00000001
     287         -0.869424        1.000000        0.00000001        0.00000002        0.00000000
     288         -0.867225        1.000000        0.00000008        0.00000010        0.00000001
     289         -0.864755        1.000000        0.00000006        0.00000007        0.00000000
     290         -0.860947        1.000000        0.00000001        0.00000004        0.00000000
     291         -0.846899        1.000000        0.00000001        0.00000001        0.00000000
     292         -0.844423        1.000000        0.00000000        0.00000001        0.00000000
     293         -0.843782        1.000000        0.00000003        0.00000004        0.00000000
     294         -0.840445        1.000000        0.00000000        0.00000002        0.00000000
     295         -0.821748        1.000000        0.00000000        0.00000000        0.00000000
     296         -0.818927        1.000000        0.00000000        0.00000000        0.00000000
     297         -0.814033        1.000000        0.00000025        0.00000021        0.00000001
     298         -0.808071        1.000000        0.00000004        0.00000005        0.00000000
     299         -0.807076        1.000000        0.00000001        0.00000001        0.00000000
     300         -0.806003        1.000000        0.00000002        0.00000001        0.00000000
     301         -0.805433        1.000000        0.00000000        0.00000001        0.00000000
     302         -0.803208        1.000000        0.00000003        0.00000002        0.00000000
     303         -0.802271        1.000000        0.00000005        0.00000005        0.00000000
     304         -0.801014        1.000000        0.00000005        0.00000006        0.00000000
     305         -0.800419        1.000000        0.00000000        0.00000000        0.00000000
     306         -0.800163        1.000000        0.00000004        0.00000005        0.00000000
     307         -0.798966        1.000000        0.00000000        0.00000000        0.00000000