# Projected DOS for list 23 of 1 atoms, at iteration step i = 0, E(Fermi) =    -0.245567 a.u.
#     MO Eigenvalue [a.u.]      Occupation                 s                 p                 d
       1         -3.122063        1.000000        0.00000000        0.00000000        0.00000000
       2         -3.121278        1.000000        0.00000000        0.00000000        0.00000000
       3         -3.121021        1.000000        0.00000000        0.00000000        0.00000000
       4         -3.120578        1.000000        0.00000000        0.00000000        0.00000000
       5         -3.120271        1.000000        0.00000000        0.00000000        0.00000000
       6         -3.119857        1.000000        0.00000000        0.00000000        0.00000000
       7         -3.119652        1.000000        0.00000000        0.00000000        0.00000000
       8         -3.119624        1.000000        0.00000000        0.00000000        0.00000000
       9         -3.119219        1.000000        0.00000000        0.00000000        0.00000000
      10         -3.119023        1.000000        0.00000000        0.00000000        0.00000000
      11         -3.118913        1.000000        0.00000000        0.00000000        0.00000000
      12         -3.118874        1.000000        0.00000000        0.00000000        0.00000000
      13         -3.118317        1.000000        0.00000000        0.00000000        0.00000000
      14         -3.118249        1.000000        0.00000000        0.00000000        0.00000000
      15         -3.117895        1.000000        0.00000000        0.00000000        0.00000000
      16         -3.117383        1.000000        0.00000000        0.00000000        0.00000000
      17         -3.117165        1.000000        0.00000000        0.00000000        0.00000000
      18         -3.116815        1.000000        0.00000000        0.00000000        0.00000000
      19         -3.116436        1.000000        0.00000000        0.00000000        0.00000000
      20         -3.116021        1.000000        0.00000000        0.00000000        0.00000000
      21         -3.115852        1.000000        0.00000000        0.00000000        0.00000000
      22         -3.115668        1.000000        0.00000000        0.00000000        0.00000000
      23         -3.115368        1.000000        0.00000000        0.00000000        0.00000000
      24         -3.115339        1.000000        0.00000000        0.00000000        0.00000000
      25         -3.115041        1.000000        0.00000000        0.00000000        0.00000000
      26         -3.114366        1.000000        0.00000000        0.00000000        0.00000000
      27         -3.113951        1.000000        0.00000000        0.00000000        0.00000000
      28         -3.113764        1.000000        0.00000000        0.00000000        0.00000000
      29         -3.112534        1.000000        0.00000000        0.00000000        0.00000000
      30         -3.111679        1.000000        0.00000000        0.00000000        0.00000000
      31         -1.784233        1.000000        0.00000000        0.00000000        0.00000000
      32         -1.782870        1.000000        0.00000000        0.00000000        0.00000000
      33         -1.782324        1.000000        0.00000000        0.00000000        0.00000000
      34         -1.782130        1.000000        0.00000000        0.00000000        0.00000000
      35         -1.781736        1.000000        0.00000000        0.00000000        0.00000000
      36         -1.781230        1.000000        0.00000000        0.00000000        0.00000000
      37         -1.780847        1.000000        0.00000000        0.00000000        0.00000000
      38         -1.780487        1.000000        0.00000000        0.00000000        0.00000000
      39         -1.780184        1.000000        0.00000000        0.00000000        0.00000000
      40         -1.779550        1.000000        0.00000000        0.00000000        0.00000000
      41         -1.779259        1.000000        0.00000000        0.00000000        0.00000000
      42         -1.778921        1.000000        0.00000000        0.00000000        0.00000000
      43         -1.778390        1.000000        0.00000000        0.00000000        0.00000000
      44         -1.778140        1.000000        0.00000000        0.00000000        0.00000000
      45         -1.777912        1.000000        0.00000000        0.00000000        0.00000000
      46         -1.777514        1.000000        0.00000000        0.00000000        0.00000000
      47         -1.777362        1.000000        0.00000000        0.00000000        0.00000000
      48         -1.776787        1.000000        0.00000000        0.00000000        0.00000000
      49         -1.776537        1.000000        0.00000000        0.00000000        0.00000000
      50         -1.776457        1.000000        0.00000000        0.00000000        0.00000000
      51         -1.776029        1.000000        0.00000000        0.00000000        0.00000000
      52         -1.774038        1.000000        0.00000000        0.00000000        0.00000000
      53         -1.773797        1.000000        0.00000000        0.00000000        0.00000000
      54         -1.773665        1.000000        0.00000000        0.00000000        0.00000000
      55         -1.772725        1.000000        0.00000000        0.00000000        0.00000000
      56         -1.772546        1.000000        0.00000000        0.00000000        0.00000000
      57         -1.772041        1.000000        0.00000000        0.00000000        0.00000000
      58         -1.771662        1.000000        0.00000000        0.00000000        0.00000000
      59         -1.771364        1.000000        0.00000000        0.00000000        0.00000000
      60         -1.770813        1.000000        0.00000000        0.00000000        0.00000000
      61         -1.770640        1.000000        0.00000000        0.00000000        0.00000000
      62         -1.770449        1.000000        0.00000000        0.00000000        0.00000000
      63         -1.770188        1.000000        0.00000000        0.00000000        0.00000000
      64         -1.770126        1.000000        0.00000000        0.00000000        0.00000000
      65         -1.769991        1.000000        0.00000000        0.00000000        0.00000000
      66         -1.769845        1.000000        0.00000000        0.00000000        0.00000000
      67         -1.769763        1.000000        0.00000000        0.00000000        0.00000000
      68         -1.769661        1.000000        0.00000000        0.00000000        0.00000000
      69         -1.769465        1.000000        0.00000000        0.00000000        0.00000000
      70         -1.769351        1.000000        0.00000000        0.00000000        0.00000000
      71         -1.769328        1.000000        0.00000000        0.00000000        0.00000000
      72         -1.769216        1.000000        0.00000000        0.00000000        0.00000000
      73         -1.769129        1.000000        0.00000000        0.00000000        0.00000000
      74         -1.769070        1.000000        0.00000000        0.00000000        0.00000000
      75         -1.768941        1.000000        0.00000000        0.00000000        0.00000000
      76         -1.768822        1.000000        0.00000000        0.00000000        0.00000000
      77         -1.768707        1.000000        0.00000000        0.00000000        0.00000000
      78         -1.768585        1.000000        0.00000000        0.00000000        0.00000000
      79         -1.768439        1.000000        0.00000000        0.00000000        0.00000000
      80         -1.768329        1.000000        0.00000000        0.00000000        0.00000000
      81         -1.768089        1.000000        0.00000000        0.00000000        0.00000000
      82         -1.767883        1.000000        0.00000000        0.00000000        0.00000000
      83         -1.767662        1.000000        0.00000000        0.00000000        0.00000000
      84         -1.767495        1.000000        0.00000000        0.00000000        0.00000000
      85         -1.767311        1.000000        0.00000000        0.00000000        0.00000000
      86         -1.767266        1.000000        0.00000000        0.00000000        0.00000000
      87         -1.767060        1.000000        0.00000000        0.00000000        0.00000000
      88         -1.767025        1.000000        0.00000000        0.00000000        0.00000000
      89         -1.766872        1.000000        0.00000000        0.00000000        0.00000000
      90         -1.766524        1.000000        0.00000000        0.00000000        0.00000000
      91         -1.766405        1.000000        0.00000000        0.00000000        0.00000000
      92         -1.766254        1.000000        0.00000000        0.00000000        0.00000000
      93         -1.766123        1.000000        0.00000000        0.00000000        0.00000000
      94         -1.765857        1.000000        0.00000000        0.00000000        0.00000000
      95         -1.765515        1.000000        0.00000000        0.00000000        0.00000000
      96         -1.765181        1.000000        0.00000000        0.00000000        0.00000000
      97         -1.765105        1.000000        0.00000000        0.00000000        0.00000000
      98         -1.764967        1.000000        0.00000000        0.00000000        0.00000000
      99         -1.764710        1.000000        0.00000000        0.00000000        0.00000000
     100         -1.764440        1.000000        0.00000000        0.00000000        0.00000000
     101         -1.764248        1.000000        0.00000000        0.00000000        0.00000000
     102         -1.763945        1.000000        0.00000000        0.00000000        0.00000000
     103         -1.763804        1.000000        0.00000000        0.00000000        0.00000000
     104         -1.763351        1.000000        0.00000000        0.00000000        0.00000000
     105         -1.763205        1.000000        0.00000000        0.00000000        0.00000000
     106         -1.763107        1.000000        0.00000000        0.00000000        0.00000000
     107         -1.762531        1.000000        0.00000000        0.00000000        0.00000000
     108         -1.762343        1.000000        0.00000000        0.00000000        0.00000000
     109         -1.761453        1.000000        0.00000000        0.00000000        0.00000000
     110         -1.760969        1.000000        0.00000000        0.00000000        0.00000000
     111         -1.760481        1.000000        0.00000000        0.00000000        0.00000000
     112         -1.760009        1.000000        0.00000000        0.00000000        0.00000000
     113         -1.759531        1.000000        0.00000000        0.00000000        0.00000000
     114         -1.759105        1.000000        0.00000000        0.00000000        0.00000000
     115         -1.758777        1.000000        0.00000000        0.00000000        0.00000000
     116         -1.757462        1.000000        0.00000000        0.00000000        0.00000000
     117         -1.756221        1.000000        0.00000000        0.00000000        0.00000000
     118         -1.755333        1.000000        0.00000000        0.00000000        0.00000000
     119         -1.754385        1.000000        0.00000000        0.00000000        0.00000000
     120         -1.752742        1.000000        0.00000000        0.00000000        0.00000000
     121         -1.131181        1.000000        0.00015573        0.00000701        0.00000759
     122         -1.128658        1.000000        0.00000016        0.00003144        0.00000096
     123         -1.128000        1.000000        0.00000114        0.00000027        0.00000023
     124         -1.126427        1.000000        0.00000010        0.00000452        0.00000010
     125         -1.120469        1.000000        0.00000899        0.00000369        0.00000030
     126         -1.119202        1.000000        0.00026130        0.00007100        0.00001335
     127         -1.117081        1.000000        0.00007838        0.00000482        0.00000300
     128         -1.116156        1.000000        0.00015156        0.00001198        0.00000732
     129         -1.115054        1.000000        0.00113302        0.00007907        0.00003023
     130         -1.111818        1.000000        0.00002632        0.00000434        0.00000300
     131         -1.111610        1.000000        0.00015490        0.00006455        0.00000688
     132         -1.110976        1.000000        0.00002427        0.00002899        0.00000415
     133         -1.109888        1.000000        0.00009446        0.00024520        0.00001197
     134         -1.108601        1.000000        0.00256271        0.00032370        0.00009299
     135         -1.108036        1.000000        0.00037624        0.00002806        0.00001536
     136         -1.107349        1.000000        0.00170532        0.00074863        0.00007329
     137         -1.106797        1.000000        0.00272224        0.00008619        0.00010910
     138         -1.106077        1.000000        0.00042058        0.00003971        0.00001521
     139         -1.104162        1.000000        0.00163473        0.00020001        0.00004946
     140         -1.102892        1.000000        0.00031464        0.00001729        0.00000775
     141         -1.102196        1.000000        0.00145697        0.00026112        0.00003440
     142         -1.101581        1.000000        0.00004110        0.00000622        0.00000585
     143         -1.101215        1.000000        0.00055229        0.00028549        0.00003254
     144         -1.099602        1.000000        0.00253428        0.00035174        0.00006508
     145         -1.098107        1.000000        0.00000254        0.00038758        0.00000385
     146         -1.097450        1.000000        0.00074788        0.00003040        0.00003979
     147         -1.097046        1.000000        0.00249355        0.00013460        0.00008146
     148         -1.095795        1.000000        0.00741218        0.00160664        0.00021957
     149         -1.095192        1.000000        0.00006878        0.00002166        0.00001037
     150         -1.093515        1.000000        0.00111659        0.00004365        0.00004695
     151         -1.093123        1.000000        0.00166558        0.00004271        0.00003542
     152         -1.092614        1.000000        0.00020026        0.00010442        0.00002429
     153         -1.091821        1.000000        0.00219693        0.00088950        0.00006627
     154         -1.090761        1.000000        0.00347313        0.00018969        0.00010428
     155         -1.090597        1.000000        0.00796754        0.00019457        0.00018220
     156         -1.089544        1.000000        0.00004486        0.00010625        0.00001127
     157         -1.088154        1.000000        0.01027085        0.00052249        0.00028934
     158         -1.086960        1.000000        0.00064676        0.00023258        0.00000920
     159         -1.086718        1.000000        0.00086009        0.00057076        0.00002090
     160         -1.085525        1.000000        0.00598893        0.00015626        0.00013289
     161         -1.084219        1.000000        0.00000010        0.00002565        0.00000147
     162         -1.082734        1.000000        0.00031823        0.00038217        0.00001083
     163         -1.082381        1.000000        0.00011127        0.00000592        0.00000593
     164         -1.080807        1.000000        0.00548334        0.00014046        0.00009441
     165         -1.080293        1.000000        0.00427091        0.00045678        0.00007373
     166         -1.079453        1.000000        0.00044337        0.00024318        0.00001607
     167         -1.078246        1.000000        0.00008281        0.00008669        0.00001715
     168         -1.077774        1.000000        0.00141188        0.00003361        0.00002134
     169         -1.077143        1.000000        0.00166785        0.00004138        0.00002166
     170         -1.076426        1.000000        0.00055325        0.00026743        0.00001159
     171         -1.076145        1.000000        0.00001366        0.00000216        0.00000253
     172         -1.074526        1.000000        0.00556837        0.00009505        0.00008842
     173         -1.074368        1.000000        0.00144987        0.00003426        0.00002611
     174         -1.073652        1.000000        0.00077922        0.00031863        0.00001695
     175         -1.072808        1.000000        0.00356143        0.00002584        0.00013154
     176         -1.072152        1.000000        0.00097301        0.00036819        0.00002351
     177         -1.071192        1.000000        0.00784126        0.00058135        0.00011140
     178         -1.070444        1.000000        0.00181776        0.00067492        0.00003309
     179         -1.070141        1.000000        0.00091116        0.00016657        0.00002424
     180         -1.069416        1.000000        0.00021024        0.00092739        0.00005090
     181         -1.069179        1.000000        0.00091260        0.00003401        0.00001644
     182         -1.067610        1.000000        0.00076769        0.00004778        0.00002219
     183         -1.066240        1.000000        0.00085766        0.00005478        0.00002182
     184         -1.065124        1.000000        0.00020811        0.00081046        0.00002442
     185         -1.064565        1.000000        0.00083176        0.00025350        0.00001226
     186         -1.063575        1.000000        0.00000073        0.00001630        0.00000016
     187         -1.062901        1.000000        0.00077055        0.00032905        0.00004085
     188         -1.062274        1.000000        0.00002095        0.00037424        0.00001515
     189         -1.061481        1.000000        0.00123051        0.00018639        0.00005477
     190         -1.061312        1.000000        0.01048584        0.00043950        0.00008049
     191         -1.060592        1.000000        0.00432885        0.00068707        0.00003783
     192         -1.059297        1.000000        0.00934979        0.00025085        0.00006468
     193         -1.058643        1.000000        0.00263236        0.00003882        0.00001711
     194         -1.058262        1.000000        0.00166341        0.00008632        0.00002122
     195         -1.057127        1.000000        0.00181712        0.00004712        0.00002023
     196         -1.056224        1.000000        0.00004502        0.00002999        0.00000307
     197         -1.056050        1.000000        0.00055891        0.00001990        0.00000720
     198         -1.054881        1.000000        0.00097549        0.00003426        0.00000634
     199         -1.054669        1.000000        0.00328660        0.00010739        0.00002697
     200         -1.053605        1.000000        0.00228332        0.00003941        0.00001898
     201         -1.053457        1.000000        0.00399671        0.00013565        0.00002985
     202         -1.052589        1.000000        0.00123125        0.00001564        0.00002261
     203         -1.052089        1.000000        0.00725150        0.00018433        0.00003560
     204         -1.051299        1.000000        0.00468019        0.00058257        0.00006255
     205         -1.050676        1.000000        0.00534360        0.00093240        0.00004489
     206         -1.050307        1.000000        0.00000234        0.00000576        0.00000190
     207         -1.049921        1.000000        0.00000472        0.00000802        0.00000212
     208         -1.049485        1.000000        0.00231357        0.00082376        0.00002365
     209         -1.049126        1.000000        0.00004907        0.00003913        0.00000423
     210         -1.048445        1.000000        0.00057024        0.00002665        0.00001477
     211         -1.048201        1.000000        0.00036615        0.00010279        0.00001045
     212         -1.047911        1.000000        0.00038801        0.00048660        0.00001227
     213         -1.047620        1.000000        0.00001811        0.00026601        0.00001114
     214         -1.046931        1.000000        0.00000289        0.00005277        0.00000216
     215         -1.046733        1.000000        0.00279142        0.00019829        0.00001502
     216         -1.046634        1.000000        0.00077603        0.00002337        0.00000725
     217         -1.045930        1.000000        0.00000014        0.00000415        0.00000039
     218         -1.045069        1.000000        0.00019779        0.00007027        0.00000208
     219         -1.044350        1.000000        0.00078993        0.00000739        0.00000407
     220         -1.043623        1.000000        0.00002013        0.00000600        0.00000170
     221         -1.043421        1.000000        0.00002041        0.00001411        0.00000280
     222         -1.042778        1.000000        0.00094056        0.00006169        0.00001489
     223         -1.042701        1.000000        0.00008650        0.00000622        0.00000197
     224         -1.042424        1.000000        0.00039004        0.00001986        0.00000280
     225         -1.041682        1.000000        0.00003224        0.00000870        0.00000361
     226         -1.041498        1.000000        0.00046098        0.00003213        0.00001561
     227         -1.040837        1.000000        0.00080727        0.00002298        0.00000725
     228         -1.040496        1.000000        0.00052950        0.00002283        0.00002040
     229         -1.040151        1.000000        0.00008736        0.00000925        0.00001422
     230         -1.039686        1.000000        0.00075708        0.00004234        0.00000996
     231         -1.038961        1.000000        0.00041623        0.00004544        0.00003683
     232         -1.038553        1.000000        0.00020932        0.00004759        0.00000264
     233         -1.038476        1.000000        0.00014025        0.00001412        0.00001085
     234         -1.038152        1.000000        0.00131857        0.00007004        0.00003074
     235         -1.038041        1.000000        0.00199036        0.00010152        0.00006768
     236         -1.036855        1.000000        0.00008294        0.00000801        0.00000262
     237         -1.036488        1.000000        0.00231733        0.00007222        0.00001703
     238         -1.036186        1.000000        0.00481712        0.00012039        0.00001982
     239         -1.036068        1.000000        0.00025808        0.00003980        0.00003755
     240         -1.035757        1.000000        0.00013948        0.00002131        0.00000976
     241         -1.035291        1.000000        0.00000020        0.00001036        0.00000049
     242         -1.035048        1.000000        0.00236617        0.00005176        0.00000761
     243         -1.035000        1.000000        0.00311224        0.00006154        0.00000487
     244         -1.034454        1.000000        0.00001853        0.00001394        0.00000765
     245         -1.034219        1.000000        0.00001458        0.00000877        0.00000101
     246         -1.033874        1.000000        0.00220528        0.00001544        0.00001252
     247         -1.033507        1.000000        0.02085415        0.00029372        0.00017446
     248         -1.033219        1.000000        0.00074726        0.00001745        0.00001333
     249         -1.033056        1.000000        0.00551167        0.00012909        0.00004637
     250         -1.032307        1.000000        0.00140696        0.00001703        0.00001514
     251         -1.031324        1.000000        0.00151060        0.00004111        0.00001741
     252         -1.031144        1.000000        0.00058943        0.00015712        0.00007936
     253         -1.030643        1.000000        0.00026683        0.00000283        0.00000073
     254         -1.030284        1.000000        0.00066488        0.00007094        0.00005915
     255         -1.030062        1.000000        0.00019614        0.00001235        0.00001270
     256         -1.029818        1.000000        0.00010004        0.00000320        0.00000078
     257         -1.028552        1.000000        0.01009497        0.00025134        0.00017941
     258         -1.027578        1.000000        0.00147129        0.00001462        0.00003208
     259         -1.027121        1.000000        0.00157304        0.00001131        0.00001056
     260         -1.026880        1.000000        0.01388188        0.00009220        0.00013653
     261         -1.026226        1.000000        0.00176562        0.00025792        0.00020996
     262         -1.025765        1.000000        0.05353325        0.00091681        0.00006249
     263         -1.025299        1.000000        0.00067211        0.00000506        0.00000353
     264         -1.025158        1.000000        0.00110363        0.00001594        0.00000296
     265         -1.025007        1.000000        0.00024943        0.00008493        0.00004641
     266         -1.024422        1.000000        0.00640686        0.00004796        0.00003719
     267         -1.023793        1.000000        0.02691930        0.00027848        0.00002169
     268         -1.023594        1.000000        0.00016516        0.00000211        0.00000086
     269         -1.023069        1.000000        0.00909803        0.00007248        0.00000705
     270         -1.022603        1.000000        0.00372509        0.00002690        0.00000483
     271         -1.022074        1.000000        0.00006754        0.00001166        0.00000975
     272         -1.021695        1.000000        0.00015274        0.00000102        0.00000235
     273         -1.021372        1.000000        0.00124995        0.00000916        0.00000092
     274         -1.021076        1.000000        0.00037049        0.00000335        0.00000275
     275         -1.019492        1.000000        0.00049850        0.00000546        0.00000682
     276         -1.018003        1.000000        0.12287053        0.00121083        0.00036066
     277         -1.016408        1.000000        0.00226941        0.00002470        0.00000615
     278         -1.016278        1.000000        0.02618562        0.00029317        0.00008975
     279         -1.015338        1.000000        0.00142287        0.00000861        0.00000907
     280         -1.013851        1.000000        0.05823237        0.00062674        0.00048730
     281         -1.010223        1.000000        0.00021648        0.00000330        0.00000156
     282         -1.009666        1.000000        0.00001540        0.00000153        0.00000181
     283         -1.007726        1.000000        0.00009592        0.00000131        0.00000003
     284         -1.007300        1.000000        0.00037282        0.00000399        0.00000057
     285         -1.006916        1.000000        0.00001158        0.00000356        0.00000217
     286         -0.889442        1.000000        0.00000000        0.00000000        0.00000000
     287         -0.869424        1.000000        0.00000000        0.00000000        0.00000000
     288         -0.867225        1.000000        0.00000000        0.00000000        0.00000000
     289         -0.864755        1.000000        0.00000000        0.00000000        0.00000000
     290         -0.860947        1.000000        0.00000000        0.00000000        0.00000000
     291         -0.846899        1.000000        0.00000000        0.00000000        0.00000000
     292         -0.844423        1.000000        0.00000000        0.00000000        0.00000000
     293         -0.843782        1.000000        0.00000000        0.00000000        0.00000000
     294         -0.840445        1.000000        0.00000000        0.00000000        0.00000000
     295         -0.821748        1.000000        0.00000000        0.00000000        0.00000000
     296         -0.818927        1.000000        0.00000000        0.00000000        0.00000000
     297         -0.814033        1.000000        0.00000000        0.00000000        0.00000000
     298         -0.808071        1.000000        0.00000000        0.00000000        0.00000000
     299         -0.807076        1.000000        0.00000000        0.00000000        0.00000000
     300         -0.806003        1.000000        0.00000000        0.00000000        0.00000000
     301         -0.805433        1.000000        0.00000000        0.00000000        0.00000000
     302         -0.803208        1.000000        0.00000000        0.00000000        0.00000000
     303         -0.802271        1.000000        0.00000000        0.00000000        0.00000000
     304         -0.801014        1.000000        0.00000000        0.00000000        0.00000000
     305         -0.800419        1.000000        0.00000000        0.00000000        0.00000000
     306         -0.800163        1.000000        0.00000000        0.00000000        0.00000000
     307         -0.798966        1.000000        0.00000000        0.00000000        0.00000000