# Projected DOS for list 12 of 1 atoms, at iteration step i = 0, E(Fermi) =    -0.245567 a.u.
#     MO Eigenvalue [a.u.]      Occupation                 s                 p                 d
       1         -3.122063        1.000000        0.00000000        0.00000000        0.00000000
       2         -3.121278        1.000000        0.00000000        0.00000000        0.00000000
       3         -3.121021        1.000000        0.00000000        0.00000000        0.00000000
       4         -3.120578        1.000000        0.00000000        0.00000000        0.00000000
       5         -3.120271        1.000000        0.00000000        0.00000000        0.00000000
       6         -3.119857        1.000000        0.00000000        0.00000000        0.00000000
       7         -3.119652        1.000000        0.00000001        0.00000000        0.00000000
       8         -3.119624        1.000000        0.00000000        0.00000000        0.00000000
       9         -3.119219        1.000000        0.00000000        0.00000000        0.00000000
      10         -3.119023        1.000000        0.00000000        0.00000000        0.00000000
      11         -3.118913        1.000000        0.00000000        0.00000000        0.00000000
      12         -3.118874        1.000000        0.00000000        0.00000000        0.00000000
      13         -3.118317        1.000000        0.00000000        0.00000000        0.00000000
      14         -3.118249        1.000000        0.00000000        0.00000000        0.00000000
      15         -3.117895        1.000000        0.00000000        0.00000000        0.00000000
      16         -3.117383        1.000000        0.00000000        0.00000000        0.00000000
      17         -3.117165        1.000000        0.00000000        0.00000000        0.00000000
      18         -3.116815        1.000000        0.00000001        0.00000000        0.00000000
      19         -3.116436        1.000000        0.00000000        0.00000000        0.00000000
      20         -3.116021        1.000000        0.00000000        0.00000000        0.00000000
      21         -3.115852        1.000000        0.00000000        0.00000000        0.00000000
      22         -3.115668        1.000000        0.00000000        0.00000000        0.00000000
      23         -3.115368        1.000000        0.00000000        0.00000000        0.00000000
      24         -3.115339        1.000000        0.00000000        0.00000000        0.00000000
      25         -3.115041        1.000000        0.00000000        0.00000000        0.00000000
      26         -3.114366        1.000000        0.00000000        0.00000000        0.00000000
      27         -3.113951        1.000000        0.00000000        0.00000000        0.00000000
      28         -3.113764        1.000000        0.00000000        0.00000000        0.00000000
      29         -3.112534        1.000000        0.00000000        0.00000000        0.00000000
      30         -3.111679        1.000000        0.00000000        0.00000000        0.00000000
      31         -1.784233        1.000000        0.00000000        0.00000000        0.00000000
      32         -1.782870        1.000000        0.00000000        0.00000000        0.00000000
      33         -1.782324        1.000000        0.00000000        0.00000000        0.00000000
      34         -1.782130        1.000000        0.00000000        0.00000000        0.00000000
      35         -1.781736        1.000000        0.00000000        0.00000000        0.00000000
      36         -1.781230        1.000000        0.00000000        0.00000000        0.00000000
      37         -1.780847        1.000000        0.00000000        0.00000000        0.00000000
      38         -1.780487        1.000000        0.00000000        0.00000000        0.00000000
      39         -1.780184        1.000000        0.00000000        0.00000000        0.00000000
      40         -1.779550        1.000000        0.00000000        0.00000000        0.00000000
      41         -1.779259        1.000000        0.00000000        0.00000000        0.00000000
      42         -1.778921        1.000000        0.00000000        0.00000000        0.00000000
      43         -1.778390        1.000000        0.00000000        0.00000000        0.00000000
      44         -1.778140        1.000000        0.00000000        0.00000000        0.00000000
      45         -1.777912        1.000000        0.00000000        0.00000000        0.00000000
      46         -1.777514        1.000000        0.00000000        0.00000000        0.00000000
      47         -1.777362        1.000000        0.00000000        0.00000000        0.00000000
      48         -1.776787        1.000000        0.00000000        0.00000000        0.00000000
      49         -1.776537        1.000000        0.00000000        0.00000000        0.00000000
      50         -1.776457        1.000000        0.00000000        0.00000000        0.00000000
      51         -1.776029        1.000000        0.00000000        0.00000000        0.00000000
      52         -1.774038        1.000000        0.00000000        0.00000000        0.00000000
      53         -1.773797        1.000000        0.00000000        0.00000000        0.00000000
      54         -1.773665        1.000000        0.00000000        0.00000000        0.00000000
      55         -1.772725        1.000000        0.00000000        0.00000000        0.00000000
      56         -1.772546        1.000000        0.00000000        0.00000000        0.00000000
      57         -1.772041        1.000000        0.00000000        0.00000000        0.00000000
      58         -1.771662        1.000000        0.00000000        0.00000000        0.00000000
      59         -1.771364        1.000000        0.00000000        0.00000000        0.00000000
      60         -1.770813        1.000000        0.00000000        0.00000000        0.00000000
      61         -1.770640        1.000000        0.00000000        0.00000000        0.00000000
      62         -1.770449        1.000000        0.00000000        0.00000000        0.00000000
      63         -1.770188        1.000000        0.00000000        0.00000000        0.00000000
      64         -1.770126        1.000000        0.00000000        0.00000000        0.00000000
      65         -1.769991        1.000000        0.00000000        0.00000000        0.00000000
      66         -1.769845        1.000000        0.00000000        0.00000000        0.00000000
      67         -1.769763        1.000000        0.00000000        0.00000000        0.00000000
      68         -1.769661        1.000000        0.00000000        0.00000000        0.00000000
      69         -1.769465        1.000000        0.00000000        0.00000000        0.00000000
      70         -1.769351        1.000000        0.00000000        0.00000000        0.00000000
      71         -1.769328        1.000000        0.00000000        0.00000000        0.00000000
      72         -1.769216        1.000000        0.00000000        0.00000000        0.00000000
      73         -1.769129        1.000000        0.00000000        0.00000000        0.00000000
      74         -1.769070        1.000000        0.00000000        0.00000000        0.00000000
      75         -1.768941        1.000000        0.00000000        0.00000000        0.00000000
      76         -1.768822        1.000000        0.00000000        0.00000000        0.00000000
      77         -1.768707        1.000000        0.00000000        0.00000000        0.00000000
      78         -1.768585        1.000000        0.00000000        0.00000000        0.00000000
      79         -1.768439        1.000000        0.00000000        0.00000000        0.00000000
      80         -1.768329        1.000000        0.00000000        0.00000000        0.00000000
      81         -1.768089        1.000000        0.00000000        0.00000000        0.00000000
      82         -1.767883        1.000000        0.00000000        0.00000000        0.00000000
      83         -1.767662        1.000000        0.00000000        0.00000000        0.00000000
      84         -1.767495        1.000000        0.00000000        0.00000000        0.00000000
      85         -1.767311        1.000000        0.00000000        0.00000000        0.00000000
      86         -1.767266        1.000000        0.00000000        0.00000000        0.00000000
      87         -1.767060        1.000000        0.00000000        0.00000000        0.00000000
      88         -1.767025        1.000000        0.00000000        0.00000000        0.00000000
      89         -1.766872        1.000000        0.00000000        0.00000000        0.00000000
      90         -1.766524        1.000000        0.00000000        0.00000000        0.00000000
      91         -1.766405        1.000000        0.00000000        0.00000000        0.00000000
      92         -1.766254        1.000000        0.00000000        0.00000000        0.00000000
      93         -1.766123        1.000000        0.00000000        0.00000000        0.00000000
      94         -1.765857        1.000000        0.00000000        0.00000000        0.00000000
      95         -1.765515        1.000000        0.00000000        0.00000000        0.00000000
      96         -1.765181        1.000000        0.00000000        0.00000000        0.00000000
      97         -1.765105        1.000000        0.00000000        0.00000000        0.00000000
      98         -1.764967        1.000000        0.00000000        0.00000000        0.00000000
      99         -1.764710        1.000000        0.00000000        0.00000000        0.00000000
     100         -1.764440        1.000000        0.00000000        0.00000000        0.00000000
     101         -1.764248        1.000000        0.00000000        0.00000000        0.00000000
     102         -1.763945        1.000000        0.00000000        0.00000000        0.00000000
     103         -1.763804        1.000000        0.00000000        0.00000000        0.00000000
     104         -1.763351        1.000000        0.00000000        0.00000000        0.00000000
     105         -1.763205        1.000000        0.00000000        0.00000000        0.00000000
     106         -1.763107        1.000000        0.00000000        0.00000000        0.00000000
     107         -1.762531        1.000000        0.00000000        0.00000000        0.00000000
     108         -1.762343        1.000000        0.00000000        0.00000000        0.00000000
     109         -1.761453        1.000000        0.00000000        0.00000000        0.00000000
     110         -1.760969        1.000000        0.00000000        0.00000000        0.00000000
     111         -1.760481        1.000000        0.00000000        0.00000000        0.00000000
     112         -1.760009        1.000000        0.00000000        0.00000000        0.00000000
     113         -1.759531        1.000000        0.00000000        0.00000000        0.00000000
     114         -1.759105        1.000000        0.00000000        0.00000000        0.00000000
     115         -1.758777        1.000000        0.00000000        0.00000000        0.00000000
     116         -1.757462        1.000000        0.00000000        0.00000000        0.00000000
     117         -1.756221        1.000000        0.00000000        0.00000000        0.00000000
     118         -1.755333        1.000000        0.00000000        0.00000000        0.00000000
     119         -1.754385        1.000000        0.00000000        0.00000000        0.00000000
     120         -1.752742        1.000000        0.00000000        0.00000000        0.00000000
     121         -1.131181        1.000000        0.00063909        0.00006258        0.00001381
     122         -1.128658        1.000000        0.00003563        0.00002663        0.00000342
     123         -1.128000        1.000000        0.00001369        0.00001435        0.00000103
     124         -1.126427        1.000000        0.00011961        0.00001950        0.00000162
     125         -1.120469        1.000000        0.00001118        0.00001587        0.00000221
     126         -1.119202        1.000000        0.00034839        0.00004404        0.00000883
     127         -1.117081        1.000000        0.00027720        0.00002426        0.00000274
     128         -1.116156        1.000000        0.00413426        0.00032829        0.00005319
     129         -1.115054        1.000000        0.00115979        0.00015386        0.00002527
     130         -1.111818        1.000000        0.00148055        0.00012507        0.00002033
     131         -1.111610        1.000000        0.00001209        0.00001381        0.00000178
     132         -1.110976        1.000000        0.00000928        0.00007525        0.00000909
     133         -1.109888        1.000000        0.00017270        0.00026958        0.00001968
     134         -1.108601        1.000000        0.00224736        0.00015537        0.00002171
     135         -1.108036        1.000000        0.00705683        0.00049158        0.00010335
     136         -1.107349        1.000000        0.00267071        0.00018756        0.00003553
     137         -1.106797        1.000000        0.00715142        0.00089624        0.00009838
     138         -1.106077        1.000000        0.00384127        0.00026514        0.00004490
     139         -1.104162        1.000000        0.00680310        0.00072381        0.00015849
     140         -1.102892        1.000000        0.00075392        0.00021935        0.00002710
     141         -1.102196        1.000000        0.00002777        0.00015063        0.00001973
     142         -1.101581        1.000000        0.00320037        0.00049956        0.00006598
     143         -1.101215        1.000000        0.00266239        0.00019726        0.00005383
     144         -1.099602        1.000000        0.00025329        0.00020235        0.00001349
     145         -1.098107        1.000000        0.00088091        0.00036028        0.00002892
     146         -1.097450        1.000000        0.00823410        0.00041479        0.00007420
     147         -1.097046        1.000000        0.01221627        0.00065570        0.00012970
     148         -1.095795        1.000000        0.00896721        0.00048133        0.00010376
     149         -1.095192        1.000000        0.01167411        0.00074227        0.00009675
     150         -1.093515        1.000000        0.00728503        0.00062531        0.00008265
     151         -1.093123        1.000000        0.00102701        0.00009377        0.00002361
     152         -1.092614        1.000000        0.00020043        0.00050721        0.00006058
     153         -1.091821        1.000000        0.00044480        0.00046629        0.00004015
     154         -1.090761        1.000000        0.00671058        0.00048605        0.00005522
     155         -1.090597        1.000000        0.00422386        0.00047841        0.00005027
     156         -1.089544        1.000000        0.00000442        0.00013413        0.00002545
     157         -1.088154        1.000000        0.00361860        0.00068974        0.00011578
     158         -1.086960        1.000000        0.00553899        0.00029396        0.00006721
     159         -1.086718        1.000000        0.00029376        0.00002885        0.00001260
     160         -1.085525        1.000000        0.00000079        0.00002938        0.00000110
     161         -1.084219        1.000000        0.00000161        0.00005694        0.00000929
     162         -1.082734        1.000000        0.00050791        0.00003926        0.00002737
     163         -1.082381        1.000000        0.00082217        0.00028878        0.00003178
     164         -1.080807        1.000000        0.00150139        0.00027815        0.00001873
     165         -1.080293        1.000000        0.00803168        0.00029958        0.00003776
     166         -1.079453        1.000000        0.00458310        0.00027764        0.00004004
     167         -1.078246        1.000000        0.00625667        0.00025185        0.00005379
     168         -1.077774        1.000000        0.00243430        0.00014975        0.00000931
     169         -1.077143        1.000000        0.01268162        0.00039676        0.00006849
     170         -1.076426        1.000000        0.00001477        0.00006370        0.00000967
     171         -1.076145        1.000000        0.00171087        0.00006110        0.00000995
     172         -1.074526        1.000000        0.00048052        0.00001705        0.00000762
     173         -1.074368        1.000000        0.01294967        0.00040703        0.00004491
     174         -1.073652        1.000000        0.00011455        0.00002487        0.00000218
     175         -1.072808        1.000000        0.01080098        0.00030567        0.00004272
     176         -1.072152        1.000000        0.00445255        0.00013260        0.00003008
     177         -1.071192        1.000000        0.00619427        0.00024213        0.00002540
     178         -1.070444        1.000000        0.00000228        0.00053019        0.00003050
     179         -1.070141        1.000000        0.00123054        0.00006996        0.00002092
     180         -1.069416        1.000000        0.00160630        0.00004746        0.00002051
     181         -1.069179        1.000000        0.00324740        0.00021151        0.00002561
     182         -1.067610        1.000000        0.01066433        0.00051581        0.00008007
     183         -1.066240        1.000000        0.00219756        0.00035924        0.00004458
     184         -1.065124        1.000000        0.00018849        0.00179062        0.00012966
     185         -1.064565        1.000000        0.00116536        0.00026766        0.00001933
     186         -1.063575        1.000000        0.00006512        0.00001896        0.00000631
     187         -1.062901        1.000000        0.00520658        0.00217439        0.00020724
     188         -1.062274        1.000000        0.00005699        0.00007574        0.00001527
     189         -1.061481        1.000000        0.00071654        0.00015569        0.00001926
     190         -1.061312        1.000000        0.00029470        0.00012775        0.00001705
     191         -1.060592        1.000000        0.00001884        0.00000071        0.00000562
     192         -1.059297        1.000000        0.00055479        0.00002010        0.00001085
     193         -1.058643        1.000000        0.00553755        0.00010039        0.00002528
     194         -1.058262        1.000000        0.00366310        0.00054162        0.00003375
     195         -1.057127        1.000000        0.00082143        0.00030071        0.00002821
     196         -1.056224        1.000000        0.00084318        0.00015462        0.00001575
     197         -1.056050        1.000000        0.00136568        0.00004223        0.00001505
     198         -1.054881        1.000000        0.00009216        0.00004203        0.00000315
     199         -1.054669        1.000000        0.00029637        0.00001116        0.00001833
     200         -1.053605        1.000000        0.00028038        0.00002668        0.00004523
     201         -1.053457        1.000000        0.00331677        0.00009105        0.00001129
     202         -1.052589        1.000000        0.00055871        0.00001633        0.00000170
     203         -1.052089        1.000000        0.00264904        0.00014399        0.00003314
     204         -1.051299        1.000000        0.00689777        0.00017979        0.00001932
     205         -1.050676        1.000000        0.00038282        0.00005058        0.00003151
     206         -1.050307        1.000000        0.00036485        0.00004649        0.00001431
     207         -1.049921        1.000000        0.00024398        0.00013080        0.00000974
     208         -1.049485        1.000000        0.00006937        0.00009954        0.00004362
     209         -1.049126        1.000000        0.00088966        0.00002048        0.00000137
     210         -1.048445        1.000000        0.00186762        0.00011263        0.00001633
     211         -1.048201        1.000000        0.00088687        0.00018547        0.00003051
     212         -1.047911        1.000000        0.00011754        0.00001577        0.00000919
     213         -1.047620        1.000000        0.00273387        0.00004917        0.00001763
     214         -1.046931        1.000000        0.00000413        0.00002613        0.00000858
     215         -1.046733        1.000000        0.00000231        0.00004878        0.00001837
     216         -1.046634        1.000000        0.00006509        0.00004851        0.00000721
     217         -1.045930        1.000000        0.00174617        0.00008246        0.00000321
     218         -1.045069        1.000000        0.00169078        0.00002721        0.00000738
     219         -1.044350        1.000000        0.00001863        0.00000609        0.00000279
     220         -1.043623        1.000000        0.00456929        0.00008845        0.00005216
     221         -1.043421        1.000000        0.00007991        0.00000552        0.00001466
     222         -1.042778        1.000000        0.00111483        0.00005472        0.00001718
     223         -1.042701        1.000000        0.00230390        0.00004685        0.00000924
     224         -1.042424        1.000000        0.00012875        0.00004815        0.00001895
     225         -1.041682        1.000000        0.01923281        0.00030275        0.00006917
     226         -1.041498        1.000000        0.00002281        0.00002466        0.00002096
     227         -1.040837        1.000000        0.02288831        0.00053574        0.00011048
     228         -1.040496        1.000000        0.00103478        0.00005441        0.00002021
     229         -1.040151        1.000000        0.00399005        0.00008669        0.00000544
     230         -1.039686        1.000000        0.00166360        0.00006009        0.00000376
     231         -1.038961        1.000000        0.00280827        0.00012141        0.00001087
     232         -1.038553        1.000000        0.00080371        0.00003474        0.00001304
     233         -1.038476        1.000000        0.00403480        0.00017538        0.00002618
     234         -1.038152        1.000000        0.00000092        0.00001097        0.00000213
     235         -1.038041        1.000000        0.00243908        0.00006324        0.00000891
     236         -1.036855        1.000000        0.00764122        0.00018315        0.00002492
     237         -1.036488        1.000000        0.00388578        0.00008875        0.00002116
     238         -1.036186        1.000000        0.00002666        0.00000550        0.00000923
     239         -1.036068        1.000000        0.00002084        0.00007664        0.00007527
     240         -1.035757        1.000000        0.01418301        0.00024310        0.00008038
     241         -1.035291        1.000000        0.06470466        0.00100033        0.00005490
     242         -1.035048        1.000000        0.00732227        0.00022154        0.00004661
     243         -1.035000        1.000000        0.03364987        0.00060250        0.00003219
     244         -1.034454        1.000000        0.03114791        0.00071036        0.00014055
     245         -1.034219        1.000000        0.02151111        0.00044473        0.00005983
     246         -1.033874        1.000000        0.00046794        0.00009167        0.00008994
     247         -1.033507        1.000000        0.00001303        0.00000838        0.00001345
     248         -1.033219        1.000000        0.00645210        0.00012309        0.00006218
     249         -1.033056        1.000000        0.00072821        0.00002490        0.00003062
     250         -1.032307        1.000000        0.00137925        0.00003360        0.00002051
     251         -1.031324        1.000000        0.00165970        0.00003166        0.00002828
     252         -1.031144        1.000000        0.00032491        0.00002804        0.00001507
     253         -1.030643        1.000000        0.00000035        0.00000309        0.00000757
     254         -1.030284        1.000000        0.00003027        0.00001048        0.00000288
     255         -1.030062        1.000000        0.00000030        0.00000267        0.00000049
     256         -1.029818        1.000000        0.00067066        0.00001606        0.00000317
     257         -1.028552        1.000000        0.00002194        0.00003118        0.00001483
     258         -1.027578        1.000000        0.00035405        0.00001347        0.00001000
     259         -1.027121        1.000000        0.00002865        0.00000144        0.00000352
     260         -1.026880        1.000000        0.00003010        0.00001332        0.00000337
     261         -1.026226        1.000000        0.00275970        0.00007346        0.00001283
     262         -1.025765        1.000000        0.00075545        0.00004616        0.00002900
     263         -1.025299        1.000000        0.00000499        0.00000022        0.00000001
     264         -1.025158        1.000000        0.00212186        0.00005959        0.00001675
     265         -1.025007        1.000000        0.00124928        0.00003211        0.00000791
     266         -1.024422        1.000000        0.01157723        0.00053890        0.00027818
     267         -1.023793        1.000000        0.00007524        0.00000689        0.00000111
     268         -1.023594        1.000000        0.00138915        0.00006593        0.00002033
     269         -1.023069        1.000000        0.00117104        0.00005771        0.00002185
     270         -1.022603        1.000000        0.00009088        0.00001335        0.00000212
     271         -1.022074        1.000000        0.00001116        0.00009361        0.00007255
     272         -1.021695        1.000000        0.00000451        0.00001532        0.00001867
     273         -1.021372        1.000000        0.00001745        0.00000048        0.00000058
     274         -1.021076        1.000000        0.00002680        0.00002778        0.00001677
     275         -1.019492        1.000000        0.00000390        0.00000792        0.00000847
     276         -1.018003        1.000000        0.01198889        0.00079389        0.00031354
     277         -1.016408        1.000000        0.00007995        0.00001764        0.00000998
     278         -1.016278        1.000000        0.00311033        0.00023299        0.00008474
     279         -1.015338        1.000000        0.00012199        0.00000750        0.00000395
     280         -1.013851        1.000000        0.00109080        0.00007985        0.00003130
     281         -1.010223        1.000000        0.00000060        0.00000026        0.00000002
     282         -1.009666        1.000000        0.00001030        0.00000185        0.00000127
     283         -1.007726        1.000000        0.00000269        0.00000064        0.00000023
     284         -1.007300        1.000000        0.00000250        0.00000022        0.00000005
     285         -1.006916        1.000000        0.00000724        0.00000088        0.00000038
     286         -0.889442        1.000000        0.00000003        0.00000003        0.00000000
     287         -0.869424        1.000000        0.00000000        0.00000000        0.00000000
     288         -0.867225        1.000000        0.00000001        0.00000000        0.00000000
     289         -0.864755        1.000000        0.00000001        0.00000001        0.00000000
     290         -0.860947        1.000000        0.00000000        0.00000000        0.00000000
     291         -0.846899        1.000000        0.00000000        0.00000000        0.00000000
     292         -0.844423        1.000000        0.00000000        0.00000000        0.00000000
     293         -0.843782        1.000000        0.00000000        0.00000000        0.00000000
     294         -0.840445        1.000000        0.00000000        0.00000000        0.00000000
     295         -0.821748        1.000000        0.00000000        0.00000000        0.00000000
     296         -0.818927        1.000000        0.00000000        0.00000000        0.00000000
     297         -0.814033        1.000000        0.00000003        0.00000004        0.00000000
     298         -0.808071        1.000000        0.00000000        0.00000000        0.00000000
     299         -0.807076        1.000000        0.00000000        0.00000000        0.00000000
     300         -0.806003        1.000000        0.00000000        0.00000000        0.00000000
     301         -0.805433        1.000000        0.00000000        0.00000000        0.00000000
     302         -0.803208        1.000000        0.00000000        0.00000000        0.00000000
     303         -0.802271        1.000000        0.00000001        0.00000003        0.00000000
     304         -0.801014        1.000000        0.00000000        0.00000000        0.00000000
     305         -0.800419        1.000000        0.00000000        0.00000000        0.00000000
     306         -0.800163        1.000000        0.00000000        0.00000000        0.00000000
     307         -0.798966        1.000000        0.00000000        0.00000000        0.00000000