# Projected DOS for list 6 of 1 atoms, at iteration step i = 0, E(Fermi) =    -0.245567 a.u.
#     MO Eigenvalue [a.u.]      Occupation                 s                 p                 d
       1         -3.122063        1.000000        0.00000000        0.00000000        0.00000000
       2         -3.121278        1.000000        0.00000000        0.00000000        0.00000000
       3         -3.121021        1.000000        0.00000000        0.00000000        0.00000000
       4         -3.120578        1.000000        0.00000000        0.00000000        0.00000000
       5         -3.120271        1.000000        0.00000000        0.00000000        0.00000000
       6         -3.119857        1.000000        0.00000000        0.00000000        0.00000000
       7         -3.119652        1.000000        0.00000002        0.00000002        0.00000000
       8         -3.119624        1.000000        0.00000000        0.00000000        0.00000000
       9         -3.119219        1.000000        0.00000000        0.00000000        0.00000000
      10         -3.119023        1.000000        0.00000000        0.00000000        0.00000000
      11         -3.118913        1.000000        0.00000000        0.00000000        0.00000000
      12         -3.118874        1.000000        0.00000000        0.00000000        0.00000000
      13         -3.118317        1.000000        0.00000000        0.00000000        0.00000000
      14         -3.118249        1.000000        0.00000000        0.00000000        0.00000000
      15         -3.117895        1.000000        0.00000000        0.00000000        0.00000000
      16         -3.117383        1.000000        0.00000001        0.00000000        0.00000000
      17         -3.117165        1.000000        0.00000000        0.00000000        0.00000000
      18         -3.116815        1.000000        0.00000002        0.00000003        0.00000000
      19         -3.116436        1.000000        0.00000000        0.00000000        0.00000000
      20         -3.116021        1.000000        0.00000000        0.00000000        0.00000000
      21         -3.115852        1.000000        0.00000000        0.00000000        0.00000000
      22         -3.115668        1.000000        0.00000000        0.00000000        0.00000000
      23         -3.115368        1.000000        0.00000000        0.00000000        0.00000000
      24         -3.115339        1.000000        0.00000000        0.00000000        0.00000000
      25         -3.115041        1.000000        0.00000000        0.00000000        0.00000000
      26         -3.114366        1.000000        0.00000000        0.00000000        0.00000000
      27         -3.113951        1.000000        0.00000000        0.00000000        0.00000000
      28         -3.113764        1.000000        0.00000000        0.00000000        0.00000000
      29         -3.112534        1.000000        0.00000000        0.00000000        0.00000000
      30         -3.111679        1.000000        0.00000000        0.00000001        0.00000000
      31         -1.784233        1.000000        0.00000000        0.00000000        0.00000000
      32         -1.782870        1.000000        0.00000000        0.00000000        0.00000000
      33         -1.782324        1.000000        0.00000000        0.00000000        0.00000000
      34         -1.782130        1.000000        0.00000000        0.00000000        0.00000000
      35         -1.781736        1.000000        0.00000000        0.00000000        0.00000000
      36         -1.781230        1.000000        0.00000000        0.00000000        0.00000000
      37         -1.780847        1.000000        0.00000000        0.00000000        0.00000000
      38         -1.780487        1.000000        0.00000000        0.00000000        0.00000000
      39         -1.780184        1.000000        0.00000000        0.00000000        0.00000000
      40         -1.779550        1.000000        0.00000000        0.00000000        0.00000000
      41         -1.779259        1.000000        0.00000000        0.00000000        0.00000000
      42         -1.778921        1.000000        0.00000000        0.00000000        0.00000000
      43         -1.778390        1.000000        0.00000000        0.00000000        0.00000000
      44         -1.778140        1.000000        0.00000000        0.00000000        0.00000000
      45         -1.777912        1.000000        0.00000000        0.00000000        0.00000000
      46         -1.777514        1.000000        0.00000000        0.00000000        0.00000000
      47         -1.777362        1.000000        0.00000000        0.00000000        0.00000000
      48         -1.776787        1.000000        0.00000000        0.00000000        0.00000000
      49         -1.776537        1.000000        0.00000000        0.00000000        0.00000000
      50         -1.776457        1.000000        0.00000000        0.00000000        0.00000000
      51         -1.776029        1.000000        0.00000000        0.00000000        0.00000000
      52         -1.774038        1.000000        0.00000000        0.00000000        0.00000000
      53         -1.773797        1.000000        0.00000000        0.00000000        0.00000000
      54         -1.773665        1.000000        0.00000000        0.00000000        0.00000000
      55         -1.772725        1.000000        0.00000000        0.00000000        0.00000000
      56         -1.772546        1.000000        0.00000000        0.00000000        0.00000000
      57         -1.772041        1.000000        0.00000000        0.00000000        0.00000000
      58         -1.771662        1.000000        0.00000000        0.00000000        0.00000000
      59         -1.771364        1.000000        0.00000000        0.00000000        0.00000000
      60         -1.770813        1.000000        0.00000000        0.00000000        0.00000000
      61         -1.770640        1.000000        0.00000000        0.00000000        0.00000000
      62         -1.770449        1.000000        0.00000000        0.00000000        0.00000000
      63         -1.770188        1.000000        0.00000000        0.00000000        0.00000000
      64         -1.770126        1.000000        0.00000000        0.00000000        0.00000000
      65         -1.769991        1.000000        0.00000000        0.00000000        0.00000000
      66         -1.769845        1.000000        0.00000000        0.00000000        0.00000000
      67         -1.769763        1.000000        0.00000000        0.00000000        0.00000000
      68         -1.769661        1.000000        0.00000000        0.00000000        0.00000000
      69         -1.769465        1.000000        0.00000000        0.00000000        0.00000000
      70         -1.769351        1.000000        0.00000000        0.00000000        0.00000000
      71         -1.769328        1.000000        0.00000000        0.00000000        0.00000000
      72         -1.769216        1.000000        0.00000000        0.00000000        0.00000000
      73         -1.769129        1.000000        0.00000000        0.00000000        0.00000000
      74         -1.769070        1.000000        0.00000000        0.00000000        0.00000000
      75         -1.768941        1.000000        0.00000000        0.00000000        0.00000000
      76         -1.768822        1.000000        0.00000000        0.00000000        0.00000000
      77         -1.768707        1.000000        0.00000000        0.00000000        0.00000000
      78         -1.768585        1.000000        0.00000000        0.00000000        0.00000000
      79         -1.768439        1.000000        0.00000000        0.00000000        0.00000000
      80         -1.768329        1.000000        0.00000000        0.00000000        0.00000000
      81         -1.768089        1.000000        0.00000000        0.00000000        0.00000000
      82         -1.767883        1.000000        0.00000000        0.00000000        0.00000000
      83         -1.767662        1.000000        0.00000000        0.00000000        0.00000000
      84         -1.767495        1.000000        0.00000000        0.00000000        0.00000000
      85         -1.767311        1.000000        0.00000000        0.00000000        0.00000000
      86         -1.767266        1.000000        0.00000000        0.00000000        0.00000000
      87         -1.767060        1.000000        0.00000000        0.00000000        0.00000000
      88         -1.767025        1.000000        0.00000000        0.00000000        0.00000000
      89         -1.766872        1.000000        0.00000000        0.00000000        0.00000000
      90         -1.766524        1.000000        0.00000000        0.00000000        0.00000000
      91         -1.766405        1.000000        0.00000000        0.00000000        0.00000000
      92         -1.766254        1.000000        0.00000000        0.00000000        0.00000000
      93         -1.766123        1.000000        0.00000000        0.00000000        0.00000000
      94         -1.765857        1.000000        0.00000000        0.00000000        0.00000000
      95         -1.765515        1.000000        0.00000000        0.00000000        0.00000000
      96         -1.765181        1.000000        0.00000000        0.00000000        0.00000000
      97         -1.765105        1.000000        0.00000000        0.00000000        0.00000000
      98         -1.764967        1.000000        0.00000000        0.00000000        0.00000000
      99         -1.764710        1.000000        0.00000000        0.00000000        0.00000000
     100         -1.764440        1.000000        0.00000000        0.00000000        0.00000000
     101         -1.764248        1.000000        0.00000000        0.00000000        0.00000000
     102         -1.763945        1.000000        0.00000000        0.00000000        0.00000000
     103         -1.763804        1.000000        0.00000000        0.00000000        0.00000000
     104         -1.763351        1.000000        0.00000000        0.00000000        0.00000000
     105         -1.763205        1.000000        0.00000000        0.00000000        0.00000000
     106         -1.763107        1.000000        0.00000000        0.00000000        0.00000000
     107         -1.762531        1.000000        0.00000000        0.00000000        0.00000000
     108         -1.762343        1.000000        0.00000000        0.00000000        0.00000000
     109         -1.761453        1.000000        0.00000000        0.00000000        0.00000000
     110         -1.760969        1.000000        0.00000000        0.00000000        0.00000000
     111         -1.760481        1.000000        0.00000000        0.00000000        0.00000000
     112         -1.760009        1.000000        0.00000000        0.00000000        0.00000000
     113         -1.759531        1.000000        0.00000000        0.00000000        0.00000000
     114         -1.759105        1.000000        0.00000000        0.00000000        0.00000000
     115         -1.758777        1.000000        0.00000000        0.00000000        0.00000000
     116         -1.757462        1.000000        0.00000000        0.00000000        0.00000000
     117         -1.756221        1.000000        0.00000000        0.00000000        0.00000000
     118         -1.755333        1.000000        0.00000000        0.00000000        0.00000000
     119         -1.754385        1.000000        0.00000000        0.00000000        0.00000000
     120         -1.752742        1.000000        0.00000000        0.00000000        0.00000000
     121         -1.131181        1.000000        0.00058815        0.00003410        0.00001244
     122         -1.128658        1.000000        0.00004430        0.00001159        0.00000328
     123         -1.128000        1.000000        0.00012507        0.00000865        0.00000323
     124         -1.126427        1.000000        0.00001458        0.00000365        0.00000114
     125         -1.120469        1.000000        0.00016984        0.00002138        0.00000992
     126         -1.119202        1.000000        0.00014669        0.00013017        0.00001365
     127         -1.117081        1.000000        0.00071974        0.00002652        0.00003070
     128         -1.116156        1.000000        0.00805345        0.00028522        0.00018087
     129         -1.115054        1.000000        0.00041696        0.00052757        0.00001132
     130         -1.111818        1.000000        0.00071409        0.00003565        0.00000737
     131         -1.111610        1.000000        0.00017096        0.00001098        0.00000659
     132         -1.110976        1.000000        0.00073143        0.00006847        0.00001425
     133         -1.109888        1.000000        0.00292366        0.00013436        0.00003570
     134         -1.108601        1.000000        0.00247250        0.00008992        0.00002837
     135         -1.108036        1.000000        0.00369061        0.00038018        0.00004076
     136         -1.107349        1.000000        0.00469304        0.00012839        0.00009505
     137         -1.106797        1.000000        0.00083301        0.00009983        0.00002385
     138         -1.106077        1.000000        0.00362168        0.00026418        0.00005891
     139         -1.104162        1.000000        0.01063900        0.00059613        0.00013486
     140         -1.102892        1.000000        0.00061984        0.00023949        0.00000614
     141         -1.102196        1.000000        0.00525301        0.00023598        0.00008743
     142         -1.101581        1.000000        0.01105361        0.00036177        0.00014425
     143         -1.101215        1.000000        0.00002563        0.00011728        0.00002739
     144         -1.099602        1.000000        0.00051047        0.00026508        0.00001598
     145         -1.098107        1.000000        0.00006464        0.00002909        0.00000917
     146         -1.097450        1.000000        0.00459156        0.00039704        0.00008709
     147         -1.097046        1.000000        0.02269564        0.00077763        0.00023301
     148         -1.095795        1.000000        0.01154165        0.00038274        0.00012404
     149         -1.095192        1.000000        0.03775763        0.00097875        0.00039936
     150         -1.093515        1.000000        0.00005388        0.00042242        0.00002747
     151         -1.093123        1.000000        0.00033961        0.00035781        0.00000594
     152         -1.092614        1.000000        0.00817089        0.00018054        0.00011746
     153         -1.091821        1.000000        0.00424066        0.00011233        0.00005926
     154         -1.090761        1.000000        0.00402740        0.00010565        0.00003438
     155         -1.090597        1.000000        0.00064489        0.00031030        0.00002098
     156         -1.089544        1.000000        0.00347816        0.00005865        0.00005726
     157         -1.088154        1.000000        0.01365221        0.00132370        0.00015820
     158         -1.086960        1.000000        0.00066682        0.00067383        0.00003302
     159         -1.086718        1.000000        0.00267500        0.00005174        0.00002954
     160         -1.085525        1.000000        0.00103430        0.00016924        0.00003016
     161         -1.084219        1.000000        0.00292418        0.00012383        0.00001766
     162         -1.082734        1.000000        0.00303356        0.00030882        0.00003874
     163         -1.082381        1.000000        0.00100796        0.00027497        0.00003108
     164         -1.080807        1.000000        0.00185181        0.00015373        0.00000811
     165         -1.080293        1.000000        0.00274584        0.00049898        0.00002522
     166         -1.079453        1.000000        0.00190365        0.00008833        0.00001403
     167         -1.078246        1.000000        0.00208076        0.00086659        0.00004381
     168         -1.077774        1.000000        0.00056991        0.00001030        0.00000867
     169         -1.077143        1.000000        0.00848677        0.00046870        0.00004054
     170         -1.076426        1.000000        0.00104744        0.00001750        0.00001918
     171         -1.076145        1.000000        0.00093973        0.00028204        0.00001153
     172         -1.074526        1.000000        0.00040000        0.00000659        0.00000932
     173         -1.074368        1.000000        0.00216068        0.00076163        0.00003118
     174         -1.073652        1.000000        0.00057049        0.00001287        0.00000113
     175         -1.072808        1.000000        0.00003886        0.00061605        0.00001340
     176         -1.072152        1.000000        0.00064742        0.00028513        0.00001290
     177         -1.071192        1.000000        0.00010285        0.00051663        0.00002115
     178         -1.070444        1.000000        0.00373643        0.00026027        0.00005787
     179         -1.070141        1.000000        0.00010511        0.00031334        0.00002899
     180         -1.069416        1.000000        0.00037629        0.00009516        0.00000996
     181         -1.069179        1.000000        0.00127623        0.00006492        0.00001035
     182         -1.067610        1.000000        0.00331542        0.00018454        0.00004411
     183         -1.066240        1.000000        0.00593449        0.00036025        0.00002694
     184         -1.065124        1.000000        0.02412486        0.00096670        0.00008328
     185         -1.064565        1.000000        0.00716247        0.00030238        0.00001323
     186         -1.063575        1.000000        0.00031031        0.00015002        0.00000079
     187         -1.062901        1.000000        0.02725032        0.00070974        0.00018039
     188         -1.062274        1.000000        0.00000117        0.00013731        0.00001178
     189         -1.061481        1.000000        0.00014505        0.00016690        0.00000529
     190         -1.061312        1.000000        0.00259409        0.00005557        0.00001438
     191         -1.060592        1.000000        0.00011008        0.00004512        0.00000444
     192         -1.059297        1.000000        0.00054138        0.00001539        0.00000686
     193         -1.058643        1.000000        0.00002134        0.00015619        0.00003133
     194         -1.058262        1.000000        0.00026122        0.00111454        0.00010443
     195         -1.057127        1.000000        0.00027859        0.00048987        0.00002478
     196         -1.056224        1.000000        0.00206232        0.00029188        0.00000797
     197         -1.056050        1.000000        0.00011563        0.00008534        0.00003337
     198         -1.054881        1.000000        0.00005837        0.00004818        0.00000202
     199         -1.054669        1.000000        0.00111550        0.00005031        0.00000971
     200         -1.053605        1.000000        0.01575995        0.00018444        0.00004629
     201         -1.053457        1.000000        0.00152250        0.00001779        0.00001558
     202         -1.052589        1.000000        0.00002104        0.00000152        0.00000187
     203         -1.052089        1.000000        0.00770407        0.00012167        0.00000764
     204         -1.051299        1.000000        0.00129647        0.00019393        0.00005230
     205         -1.050676        1.000000        0.00000147        0.00001421        0.00000850
     206         -1.050307        1.000000        0.00029868        0.00005735        0.00000684
     207         -1.049921        1.000000        0.00002004        0.00013161        0.00006040
     208         -1.049485        1.000000        0.00475623        0.00012717        0.00002873
     209         -1.049126        1.000000        0.00002536        0.00001100        0.00000590
     210         -1.048445        1.000000        0.00160232        0.00020933        0.00004739
     211         -1.048201        1.000000        0.00003394        0.00020895        0.00006906
     212         -1.047911        1.000000        0.00034623        0.00001514        0.00001013
     213         -1.047620        1.000000        0.00107462        0.00005060        0.00000660
     214         -1.046931        1.000000        0.00353940        0.00004373        0.00001551
     215         -1.046733        1.000000        0.00194093        0.00005199        0.00001438
     216         -1.046634        1.000000        0.00194608        0.00005674        0.00002839
     217         -1.045930        1.000000        0.00079038        0.00002472        0.00000957
     218         -1.045069        1.000000        0.00418392        0.00005271        0.00001560
     219         -1.044350        1.000000        0.00082745        0.00002834        0.00001430
     220         -1.043623        1.000000        0.00932543        0.00010734        0.00004034
     221         -1.043421        1.000000        0.00602982        0.00007737        0.00002750
     222         -1.042778        1.000000        0.00057751        0.00000699        0.00000434
     223         -1.042701        1.000000        0.00013348        0.00000552        0.00000372
     224         -1.042424        1.000000        0.00068645        0.00003305        0.00001827
     225         -1.041682        1.000000        0.01477492        0.00025842        0.00004979
     226         -1.041498        1.000000        0.00937134        0.00008641        0.00003079
     227         -1.040837        1.000000        0.04108450        0.00077877        0.00011093
     228         -1.040496        1.000000        0.00350634        0.00006196        0.00001299
     229         -1.040151        1.000000        0.00134475        0.00002377        0.00002089
     230         -1.039686        1.000000        0.00263314        0.00005925        0.00001146
     231         -1.038961        1.000000        0.00403232        0.00010638        0.00001599
     232         -1.038553        1.000000        0.00014035        0.00003915        0.00000836
     233         -1.038476        1.000000        0.00338601        0.00009547        0.00001611
     234         -1.038152        1.000000        0.00112284        0.00001805        0.00000290
     235         -1.038041        1.000000        0.00165941        0.00001845        0.00000195
     236         -1.036855        1.000000        0.00174228        0.00005093        0.00004550
     237         -1.036488        1.000000        0.00777409        0.00009986        0.00000565
     238         -1.036186        1.000000        0.00002548        0.00000798        0.00000700
     239         -1.036068        1.000000        0.00008462        0.00000830        0.00000375
     240         -1.035757        1.000000        0.01466649        0.00033081        0.00006547
     241         -1.035291        1.000000        0.02271479        0.00036714        0.00004921
     242         -1.035048        1.000000        0.00677247        0.00008396        0.00008009
     243         -1.035000        1.000000        0.00253504        0.00010873        0.00008708
     244         -1.034454        1.000000        0.00038703        0.00009698        0.00008812
     245         -1.034219        1.000000        0.00424483        0.00009351        0.00016698
     246         -1.033874        1.000000        0.00239681        0.00004920        0.00003382
     247         -1.033507        1.000000        0.00008230        0.00000686        0.00000289
     248         -1.033219        1.000000        0.00029320        0.00002771        0.00003244
     249         -1.033056        1.000000        0.00103381        0.00005747        0.00004717
     250         -1.032307        1.000000        0.00140302        0.00002720        0.00001019
     251         -1.031324        1.000000        0.00583855        0.00036987        0.00014068
     252         -1.031144        1.000000        0.00003405        0.00003584        0.00001344
     253         -1.030643        1.000000        0.00095074        0.00003144        0.00000563
     254         -1.030284        1.000000        0.00118705        0.00002604        0.00000622
     255         -1.030062        1.000000        0.00008916        0.00000377        0.00000525
     256         -1.029818        1.000000        0.00148136        0.00001299        0.00000692
     257         -1.028552        1.000000        0.00155181        0.00003063        0.00000346
     258         -1.027578        1.000000        0.00012052        0.00007796        0.00001769
     259         -1.027121        1.000000        0.00009379        0.00001680        0.00000686
     260         -1.026880        1.000000        0.00015224        0.00001684        0.00000571
     261         -1.026226        1.000000        0.00354485        0.00009719        0.00002489
     262         -1.025765        1.000000        0.00114816        0.00002382        0.00000602
     263         -1.025299        1.000000        0.00000011        0.00000063        0.00000052
     264         -1.025158        1.000000        0.00136302        0.00018709        0.00010373
     265         -1.025007        1.000000        0.00152799        0.00007437        0.00003055
     266         -1.024422        1.000000        0.02574012        0.00127273        0.00038059
     267         -1.023793        1.000000        0.00026502        0.00000433        0.00000324
     268         -1.023594        1.000000        0.00320866        0.00029231        0.00006727
     269         -1.023069        1.000000        0.00569680        0.00006336        0.00004425
     270         -1.022603        1.000000        0.00127426        0.00001845        0.00000520
     271         -1.022074        1.000000        0.00000346        0.00022122        0.00010237
     272         -1.021695        1.000000        0.00045927        0.00004390        0.00003936
     273         -1.021372        1.000000        0.00002972        0.00000132        0.00000072
     274         -1.021076        1.000000        0.00281005        0.00006518        0.00013602
     275         -1.019492        1.000000        0.00009031        0.00001581        0.00000419
     276         -1.018003        1.000000        0.00025514        0.00001078        0.00002524
     277         -1.016408        1.000000        0.00014611        0.00000502        0.00000253
     278         -1.016278        1.000000        0.00004513        0.00000258        0.00000890
     279         -1.015338        1.000000        0.00000617        0.00000039        0.00000038
     280         -1.013851        1.000000        0.00000762        0.00000185        0.00000283
     281         -1.010223        1.000000        0.00000130        0.00000016        0.00000003
     282         -1.009666        1.000000        0.00000076        0.00000003        0.00000002
     283         -1.007726        1.000000        0.00000429        0.00000192        0.00000015
     284         -1.007300        1.000000        0.00000002        0.00000012        0.00000002
     285         -1.006916        1.000000        0.00000079        0.00000001        0.00000001
     286         -0.889442        1.000000        0.00000016        0.00000013        0.00000001
     287         -0.869424        1.000000        0.00000002        0.00000004        0.00000000
     288         -0.867225        1.000000        0.00000005        0.00000005        0.00000000
     289         -0.864755        1.000000        0.00000004        0.00000005        0.00000000
     290         -0.860947        1.000000        0.00000004        0.00000006        0.00000000
     291         -0.846899        1.000000        0.00000001        0.00000004        0.00000000
     292         -0.844423        1.000000        0.00000000        0.00000000        0.00000000
     293         -0.843782        1.000000        0.00000003        0.00000002        0.00000000
     294         -0.840445        1.000000        0.00000003        0.00000004        0.00000000
     295         -0.821748        1.000000        0.00000000        0.00000001        0.00000000
     296         -0.818927        1.000000        0.00000001        0.00000001        0.00000000
     297         -0.814033        1.000000        0.00000017        0.00000013        0.00000000
     298         -0.808071        1.000000        0.00000002        0.00000004        0.00000000
     299         -0.807076        1.000000        0.00000001        0.00000001        0.00000000
     300         -0.806003        1.000000        0.00000002        0.00000001        0.00000000
     301         -0.805433        1.000000        0.00000000        0.00000001        0.00000000
     302         -0.803208        1.000000        0.00000004        0.00000005        0.00000000
     303         -0.802271        1.000000        0.00000008        0.00000007        0.00000000
     304         -0.801014        1.000000        0.00000000        0.00000000        0.00000000
     305         -0.800419        1.000000        0.00000001        0.00000000        0.00000000
     306         -0.800163        1.000000        0.00000000        0.00000000        0.00000000
     307         -0.798966        1.000000        0.00000000        0.00000001        0.00000000