# Projected DOS for list 22 of 1 atoms, at iteration step i = 0, E(Fermi) =    -0.245567 a.u.
#     MO Eigenvalue [a.u.]      Occupation                 s                 p                 d
       1         -3.122063        1.000000        0.00000000        0.00000000        0.00000000
       2         -3.121278        1.000000        0.00000000        0.00000000        0.00000000
       3         -3.121021        1.000000        0.00000000        0.00000000        0.00000000
       4         -3.120578        1.000000        0.00000000        0.00000000        0.00000000
       5         -3.120271        1.000000        0.00000000        0.00000000        0.00000000
       6         -3.119857        1.000000        0.00000000        0.00000000        0.00000000
       7         -3.119652        1.000000        0.00000000        0.00000000        0.00000000
       8         -3.119624        1.000000        0.00000000        0.00000000        0.00000000
       9         -3.119219        1.000000        0.00000000        0.00000000        0.00000000
      10         -3.119023        1.000000        0.00000000        0.00000000        0.00000000
      11         -3.118913        1.000000        0.00000000        0.00000000        0.00000000
      12         -3.118874        1.000000        0.00000000        0.00000000        0.00000000
      13         -3.118317        1.000000        0.00000000        0.00000000        0.00000000
      14         -3.118249        1.000000        0.00000000        0.00000000        0.00000000
      15         -3.117895        1.000000        0.00000000        0.00000000        0.00000000
      16         -3.117383        1.000000        0.00000000        0.00000000        0.00000000
      17         -3.117165        1.000000        0.00000000        0.00000000        0.00000000
      18         -3.116815        1.000000        0.00000000        0.00000000        0.00000000
      19         -3.116436        1.000000        0.00000000        0.00000000        0.00000000
      20         -3.116021        1.000000        0.00000000        0.00000000        0.00000000
      21         -3.115852        1.000000        0.00000000        0.00000000        0.00000000
      22         -3.115668        1.000000        0.00000000        0.00000000        0.00000000
      23         -3.115368        1.000000        0.00000000        0.00000000        0.00000000
      24         -3.115339        1.000000        0.00000000        0.00000000        0.00000000
      25         -3.115041        1.000000        0.00000000        0.00000000        0.00000000
      26         -3.114366        1.000000        0.00000000        0.00000000        0.00000000
      27         -3.113951        1.000000        0.00000000        0.00000000        0.00000000
      28         -3.113764        1.000000        0.00000000        0.00000000        0.00000000
      29         -3.112534        1.000000        0.00000000        0.00000000        0.00000000
      30         -3.111679        1.000000        0.00000000        0.00000000        0.00000000
      31         -1.784233        1.000000        0.00000000        0.00000000        0.00000000
      32         -1.782870        1.000000        0.00000000        0.00000000        0.00000000
      33         -1.782324        1.000000        0.00000000        0.00000000        0.00000000
      34         -1.782130        1.000000        0.00000000        0.00000000        0.00000000
      35         -1.781736        1.000000        0.00000000        0.00000000        0.00000000
      36         -1.781230        1.000000        0.00000000        0.00000000        0.00000000
      37         -1.780847        1.000000        0.00000000        0.00000000        0.00000000
      38         -1.780487        1.000000        0.00000000        0.00000000        0.00000000
      39         -1.780184        1.000000        0.00000000        0.00000000        0.00000000
      40         -1.779550        1.000000        0.00000000        0.00000000        0.00000000
      41         -1.779259        1.000000        0.00000000        0.00000000        0.00000000
      42         -1.778921        1.000000        0.00000000        0.00000000        0.00000000
      43         -1.778390        1.000000        0.00000000        0.00000000        0.00000000
      44         -1.778140        1.000000        0.00000000        0.00000000        0.00000000
      45         -1.777912        1.000000        0.00000000        0.00000000        0.00000000
      46         -1.777514        1.000000        0.00000000        0.00000000        0.00000000
      47         -1.777362        1.000000        0.00000000        0.00000000        0.00000000
      48         -1.776787        1.000000        0.00000000        0.00000000        0.00000000
      49         -1.776537        1.000000        0.00000000        0.00000000        0.00000000
      50         -1.776457        1.000000        0.00000000        0.00000000        0.00000000
      51         -1.776029        1.000000        0.00000000        0.00000000        0.00000000
      52         -1.774038        1.000000        0.00000000        0.00000000        0.00000000
      53         -1.773797        1.000000        0.00000000        0.00000000        0.00000000
      54         -1.773665        1.000000        0.00000000        0.00000000        0.00000000
      55         -1.772725        1.000000        0.00000000        0.00000000        0.00000000
      56         -1.772546        1.000000        0.00000000        0.00000000        0.00000000
      57         -1.772041        1.000000        0.00000000        0.00000000        0.00000000
      58         -1.771662        1.000000        0.00000000        0.00000000        0.00000000
      59         -1.771364        1.000000        0.00000000        0.00000000        0.00000000
      60         -1.770813        1.000000        0.00000000        0.00000000        0.00000000
      61         -1.770640        1.000000        0.00000000        0.00000000        0.00000000
      62         -1.770449        1.000000        0.00000000        0.00000000        0.00000000
      63         -1.770188        1.000000        0.00000000        0.00000000        0.00000000
      64         -1.770126        1.000000        0.00000000        0.00000000        0.00000000
      65         -1.769991        1.000000        0.00000000        0.00000000        0.00000000
      66         -1.769845        1.000000        0.00000000        0.00000000        0.00000000
      67         -1.769763        1.000000        0.00000000        0.00000000        0.00000000
      68         -1.769661        1.000000        0.00000000        0.00000000        0.00000000
      69         -1.769465        1.000000        0.00000000        0.00000000        0.00000000
      70         -1.769351        1.000000        0.00000000        0.00000000        0.00000000
      71         -1.769328        1.000000        0.00000000        0.00000000        0.00000000
      72         -1.769216        1.000000        0.00000000        0.00000000        0.00000000
      73         -1.769129        1.000000        0.00000000        0.00000000        0.00000000
      74         -1.769070        1.000000        0.00000000        0.00000000        0.00000000
      75         -1.768941        1.000000        0.00000000        0.00000000        0.00000000
      76         -1.768822        1.000000        0.00000000        0.00000000        0.00000000
      77         -1.768707        1.000000        0.00000000        0.00000000        0.00000000
      78         -1.768585        1.000000        0.00000000        0.00000000        0.00000000
      79         -1.768439        1.000000        0.00000000        0.00000000        0.00000000
      80         -1.768329        1.000000        0.00000000        0.00000000        0.00000000
      81         -1.768089        1.000000        0.00000000        0.00000000        0.00000000
      82         -1.767883        1.000000        0.00000000        0.00000000        0.00000000
      83         -1.767662        1.000000        0.00000000        0.00000000        0.00000000
      84         -1.767495        1.000000        0.00000000        0.00000000        0.00000000
      85         -1.767311        1.000000        0.00000000        0.00000000        0.00000000
      86         -1.767266        1.000000        0.00000000        0.00000000        0.00000000
      87         -1.767060        1.000000        0.00000000        0.00000000        0.00000000
      88         -1.767025        1.000000        0.00000000        0.00000000        0.00000000
      89         -1.766872        1.000000        0.00000000        0.00000000        0.00000000
      90         -1.766524        1.000000        0.00000000        0.00000000        0.00000000
      91         -1.766405        1.000000        0.00000000        0.00000000        0.00000000
      92         -1.766254        1.000000        0.00000000        0.00000000        0.00000000
      93         -1.766123        1.000000        0.00000000        0.00000000        0.00000000
      94         -1.765857        1.000000        0.00000000        0.00000000        0.00000000
      95         -1.765515        1.000000        0.00000000        0.00000000        0.00000000
      96         -1.765181        1.000000        0.00000000        0.00000000        0.00000000
      97         -1.765105        1.000000        0.00000000        0.00000000        0.00000000
      98         -1.764967        1.000000        0.00000000        0.00000000        0.00000000
      99         -1.764710        1.000000        0.00000000        0.00000000        0.00000000
     100         -1.764440        1.000000        0.00000000        0.00000000        0.00000000
     101         -1.764248        1.000000        0.00000000        0.00000000        0.00000000
     102         -1.763945        1.000000        0.00000000        0.00000000        0.00000000
     103         -1.763804        1.000000        0.00000000        0.00000000        0.00000000
     104         -1.763351        1.000000        0.00000000        0.00000000        0.00000000
     105         -1.763205        1.000000        0.00000000        0.00000000        0.00000000
     106         -1.763107        1.000000        0.00000000        0.00000000        0.00000000
     107         -1.762531        1.000000        0.00000000        0.00000000        0.00000000
     108         -1.762343        1.000000        0.00000000        0.00000000        0.00000000
     109         -1.761453        1.000000        0.00000000        0.00000000        0.00000000
     110         -1.760969        1.000000        0.00000000        0.00000000        0.00000000
     111         -1.760481        1.000000        0.00000000        0.00000000        0.00000000
     112         -1.760009        1.000000        0.00000000        0.00000000        0.00000000
     113         -1.759531        1.000000        0.00000000        0.00000000        0.00000000
     114         -1.759105        1.000000        0.00000000        0.00000000        0.00000000
     115         -1.758777        1.000000        0.00000000        0.00000000        0.00000000
     116         -1.757462        1.000000        0.00000000        0.00000000        0.00000000
     117         -1.756221        1.000000        0.00000000        0.00000000        0.00000000
     118         -1.755333        1.000000        0.00000000        0.00000000        0.00000000
     119         -1.754385        1.000000        0.00000000        0.00000000        0.00000000
     120         -1.752742        1.000000        0.00000000        0.00000000        0.00000000
     121         -1.131181        1.000000        0.00053481        0.00002687        0.00001537
     122         -1.128658        1.000000        0.00002158        0.00000209        0.00000115
     123         -1.128000        1.000000        0.00023692        0.00003586        0.00000976
     124         -1.126427        1.000000        0.00340924        0.00038838        0.00011663
     125         -1.120469        1.000000        0.00514743        0.00050466        0.00010826
     126         -1.119202        1.000000        0.00028968        0.00003914        0.00001421
     127         -1.117081        1.000000        0.00148436        0.00005447        0.00002853
     128         -1.116156        1.000000        0.00407563        0.00018935        0.00005841
     129         -1.115054        1.000000        0.00272578        0.00015150        0.00007060
     130         -1.111818        1.000000        0.00060669        0.00001958        0.00001164
     131         -1.111610        1.000000        0.00051102        0.00006587        0.00001654
     132         -1.110976        1.000000        0.01488490        0.00046260        0.00024616
     133         -1.109888        1.000000        0.00225011        0.00024069        0.00004773
     134         -1.108601        1.000000        0.02906345        0.00093506        0.00046798
     135         -1.108036        1.000000        0.00844031        0.00026431        0.00010557
     136         -1.107349        1.000000        0.00266572        0.00008938        0.00005489
     137         -1.106797        1.000000        0.03116695        0.00134312        0.00048836
     138         -1.106077        1.000000        0.00000330        0.00032586        0.00000106
     139         -1.104162        1.000000        0.00703773        0.00038234        0.00008692
     140         -1.102892        1.000000        0.00006174        0.00001056        0.00001047
     141         -1.102196        1.000000        0.00393537        0.00018813        0.00004335
     142         -1.101581        1.000000        0.00163092        0.00080114        0.00002953
     143         -1.101215        1.000000        0.00000429        0.00013470        0.00001173
     144         -1.099602        1.000000        0.00576347        0.00052431        0.00008689
     145         -1.098107        1.000000        0.00172555        0.00209433        0.00010335
     146         -1.097450        1.000000        0.01286673        0.00114444        0.00015449
     147         -1.097046        1.000000        0.00467294        0.00034567        0.00004860
     148         -1.095795        1.000000        0.00624895        0.00015716        0.00006756
     149         -1.095192        1.000000        0.00043666        0.00033273        0.00001960
     150         -1.093515        1.000000        0.00011478        0.00033732        0.00003275
     151         -1.093123        1.000000        0.00004167        0.00075638        0.00004075
     152         -1.092614        1.000000        0.00391789        0.00009168        0.00004380
     153         -1.091821        1.000000        0.00115112        0.00037581        0.00002532
     154         -1.090761        1.000000        0.00028478        0.00000513        0.00003912
     155         -1.090597        1.000000        0.00000096        0.00046454        0.00001996
     156         -1.089544        1.000000        0.00007000        0.00016832        0.00002671
     157         -1.088154        1.000000        0.00173496        0.00011137        0.00003282
     158         -1.086960        1.000000        0.00478777        0.00015581        0.00003211
     159         -1.086718        1.000000        0.00307249        0.00083232        0.00003516
     160         -1.085525        1.000000        0.00000756        0.00016094        0.00001108
     161         -1.084219        1.000000        0.00116677        0.00043145        0.00003787
     162         -1.082734        1.000000        0.00595111        0.00019434        0.00002946
     163         -1.082381        1.000000        0.00483922        0.00006554        0.00005085
     164         -1.080807        1.000000        0.00002126        0.00018252        0.00003929
     165         -1.080293        1.000000        0.00000308        0.00011778        0.00001508
     166         -1.079453        1.000000        0.00335951        0.00130480        0.00008801
     167         -1.078246        1.000000        0.00135101        0.00073305        0.00005457
     168         -1.077774        1.000000        0.00196958        0.00005389        0.00006005
     169         -1.077143        1.000000        0.00296326        0.00013045        0.00005942
     170         -1.076426        1.000000        0.00159322        0.00047165        0.00002023
     171         -1.076145        1.000000        0.00071216        0.00005198        0.00002190
     172         -1.074526        1.000000        0.00043508        0.00019039        0.00001888
     173         -1.074368        1.000000        0.00168063        0.00007022        0.00002161
     174         -1.073652        1.000000        0.00076659        0.00042239        0.00002053
     175         -1.072808        1.000000        0.00478984        0.00006528        0.00007717
     176         -1.072152        1.000000        0.00127707        0.00075377        0.00001565
     177         -1.071192        1.000000        0.00037835        0.00003785        0.00003556
     178         -1.070444        1.000000        0.00717955        0.00007109        0.00005089
     179         -1.070141        1.000000        0.00616434        0.00007930        0.00003854
     180         -1.069416        1.000000        0.00000869        0.00068613        0.00007845
     181         -1.069179        1.000000        0.00651647        0.00009656        0.00004732
     182         -1.067610        1.000000        0.00006054        0.00083426        0.00004182
     183         -1.066240        1.000000        0.00494993        0.00074617        0.00004082
     184         -1.065124        1.000000        0.00040539        0.00009163        0.00003641
     185         -1.064565        1.000000        0.00002116        0.00006866        0.00006496
     186         -1.063575        1.000000        0.00037635        0.00011198        0.00008440
     187         -1.062901        1.000000        0.00528628        0.00009303        0.00007139
     188         -1.062274        1.000000        0.00282518        0.00011044        0.00003529
     189         -1.061481        1.000000        0.00003290        0.00010831        0.00001408
     190         -1.061312        1.000000        0.01050059        0.00012467        0.00003986
     191         -1.060592        1.000000        0.01160750        0.00018833        0.00005008
     192         -1.059297        1.000000        0.00608708        0.00006913        0.00000938
     193         -1.058643        1.000000        0.02570646        0.00027412        0.00005162
     194         -1.058262        1.000000        0.00078670        0.00001737        0.00001334
     195         -1.057127        1.000000        0.00006001        0.00002194        0.00002894
     196         -1.056224        1.000000        0.00000282        0.00003068        0.00001003
     197         -1.056050        1.000000        0.00002872        0.00002197        0.00001514
     198         -1.054881        1.000000        0.00000019        0.00004512        0.00000148
     199         -1.054669        1.000000        0.00020567        0.00014395        0.00000218
     200         -1.053605        1.000000        0.00029866        0.00012316        0.00002960
     201         -1.053457        1.000000        0.00395652        0.00021472        0.00000552
     202         -1.052589        1.000000        0.00342661        0.00011401        0.00000712
     203         -1.052089        1.000000        0.00236241        0.00013304        0.00003666
     204         -1.051299        1.000000        0.00898521        0.00014809        0.00001513
     205         -1.050676        1.000000        0.00973027        0.00018213        0.00002493
     206         -1.050307        1.000000        0.04322505        0.00058371        0.00007540
     207         -1.049921        1.000000        0.00137747        0.00002205        0.00002205
     208         -1.049485        1.000000        0.01872090        0.00020915        0.00001725
     209         -1.049126        1.000000        0.00172926        0.00005993        0.00001611
     210         -1.048445        1.000000        0.00013447        0.00000853        0.00000442
     211         -1.048201        1.000000        0.00913396        0.00017291        0.00011440
     212         -1.047911        1.000000        0.00140166        0.00009038        0.00001347
     213         -1.047620        1.000000        0.00067188        0.00007114        0.00001436
     214         -1.046931        1.000000        0.00051616        0.00004480        0.00001640
     215         -1.046733        1.000000        0.00312301        0.00006190        0.00001172
     216         -1.046634        1.000000        0.00586849        0.00009995        0.00000439
     217         -1.045930        1.000000        0.00084743        0.00018710        0.00002219
     218         -1.045069        1.000000        0.00069149        0.00001526        0.00001811
     219         -1.044350        1.000000        0.00015036        0.00000404        0.00001545
     220         -1.043623        1.000000        0.00235512        0.00017897        0.00017790
     221         -1.043421        1.000000        0.00021839        0.00002530        0.00000450
     222         -1.042778        1.000000        0.00005540        0.00002253        0.00000829
     223         -1.042701        1.000000        0.00006462        0.00016345        0.00002037
     224         -1.042424        1.000000        0.00022307        0.00017852        0.00006027
     225         -1.041682        1.000000        0.00462464        0.00036079        0.00006668
     226         -1.041498        1.000000        0.00021122        0.00007919        0.00001347
     227         -1.040837        1.000000        0.00348615        0.00008154        0.00003032
     228         -1.040496        1.000000        0.00145327        0.00001789        0.00002402
     229         -1.040151        1.000000        0.00955655        0.00017151        0.00012161
     230         -1.039686        1.000000        0.00322833        0.00011295        0.00002131
     231         -1.038961        1.000000        0.00147933        0.00008824        0.00000399
     232         -1.038553        1.000000        0.00079987        0.00004238        0.00001836
     233         -1.038476        1.000000        0.00000817        0.00027356        0.00008222
     234         -1.038152        1.000000        0.00674237        0.00005614        0.00003916
     235         -1.038041        1.000000        0.00921015        0.00010867        0.00002600
     236         -1.036855        1.000000        0.00401672        0.00014923        0.00006498
     237         -1.036488        1.000000        0.00096168        0.00005253        0.00002407
     238         -1.036186        1.000000        0.00052163        0.00002762        0.00001018
     239         -1.036068        1.000000        0.01169525        0.00013087        0.00001991
     240         -1.035757        1.000000        0.01804720        0.00017726        0.00004584
     241         -1.035291        1.000000        0.00345113        0.00010997        0.00004619
     242         -1.035048        1.000000        0.01289677        0.00017817        0.00004215
     243         -1.035000        1.000000        0.00335788        0.00003562        0.00000435
     244         -1.034454        1.000000        0.00003354        0.00003400        0.00001536
     245         -1.034219        1.000000        0.00015111        0.00001469        0.00002453
     246         -1.033874        1.000000        0.00935254        0.00015745        0.00007450
     247         -1.033507        1.000000        0.00005783        0.00003383        0.00000811
     248         -1.033219        1.000000        0.00019570        0.00031432        0.00011350
     249         -1.033056        1.000000        0.00128553        0.00006128        0.00001977
     250         -1.032307        1.000000        0.02124417        0.00028255        0.00023597
     251         -1.031324        1.000000        0.00142666        0.00003900        0.00002505
     252         -1.031144        1.000000        0.00000963        0.00001325        0.00001549
     253         -1.030643        1.000000        0.00000077        0.00002248        0.00006060
     254         -1.030284        1.000000        0.00030510        0.00002165        0.00003047
     255         -1.030062        1.000000        0.00029597        0.00002864        0.00001856
     256         -1.029818        1.000000        0.00312426        0.00010728        0.00008834
     257         -1.028552        1.000000        0.00015207        0.00001316        0.00000735
     258         -1.027578        1.000000        0.00005167        0.00000610        0.00000229
     259         -1.027121        1.000000        0.00311301        0.00004471        0.00002830
     260         -1.026880        1.000000        0.00112215        0.00003473        0.00000888
     261         -1.026226        1.000000        0.00031794        0.00000884        0.00000354
     262         -1.025765        1.000000        0.00037460        0.00000703        0.00000464
     263         -1.025299        1.000000        0.00004294        0.00000312        0.00000206
     264         -1.025158        1.000000        0.00001878        0.00000638        0.00000634
     265         -1.025007        1.000000        0.00011637        0.00000262        0.00000142
     266         -1.024422        1.000000        0.00027079        0.00000986        0.00000170
     267         -1.023793        1.000000        0.00051879        0.00005804        0.00001162
     268         -1.023594        1.000000        0.00009261        0.00000349        0.00000387
     269         -1.023069        1.000000        0.00125207        0.00012150        0.00001583
     270         -1.022603        1.000000        0.00227449        0.00026224        0.00008342
     271         -1.022074        1.000000        0.00001223        0.00000214        0.00000046
     272         -1.021695        1.000000        0.00003724        0.00000321        0.00000362
     273         -1.021372        1.000000        0.00000192        0.00000317        0.00000063
     274         -1.021076        1.000000        0.00001026        0.00000014        0.00000012
     275         -1.019492        1.000000        0.00017320        0.00001220        0.00000470
     276         -1.018003        1.000000        0.00072542        0.00010072        0.00002392
     277         -1.016408        1.000000        0.00000050        0.00000291        0.00000256
     278         -1.016278        1.000000        0.00038530        0.00001240        0.00001426
     279         -1.015338        1.000000        0.00000630        0.00000111        0.00000016
     280         -1.013851        1.000000        0.00002898        0.00000530        0.00000345
     281         -1.010223        1.000000        0.00000906        0.00000037        0.00000015
     282         -1.009666        1.000000        0.00000010        0.00000031        0.00000007
     283         -1.007726        1.000000        0.00013417        0.00000998        0.00000358
     284         -1.007300        1.000000        0.00000035        0.00000212        0.00000141
     285         -1.006916        1.000000        0.00000001        0.00000313        0.00000040
     286         -0.889442        1.000000        0.00000000        0.00000000        0.00000000
     287         -0.869424        1.000000        0.00000000        0.00000000        0.00000000
     288         -0.867225        1.000000        0.00000000        0.00000000        0.00000000
     289         -0.864755        1.000000        0.00000000        0.00000000        0.00000000
     290         -0.860947        1.000000        0.00000000        0.00000000        0.00000000
     291         -0.846899        1.000000        0.00000000        0.00000000        0.00000000
     292         -0.844423        1.000000        0.00000000        0.00000000        0.00000000
     293         -0.843782        1.000000        0.00000000        0.00000000        0.00000000
     294         -0.840445        1.000000        0.00000000        0.00000000        0.00000000
     295         -0.821748        1.000000        0.00000000        0.00000000        0.00000000
     296         -0.818927        1.000000        0.00000000        0.00000000        0.00000000
     297         -0.814033        1.000000        0.00000000        0.00000000        0.00000000
     298         -0.808071        1.000000        0.00000000        0.00000000        0.00000000
     299         -0.807076        1.000000        0.00000000        0.00000000        0.00000000
     300         -0.806003        1.000000        0.00000000        0.00000000        0.00000000
     301         -0.805433        1.000000        0.00000000        0.00000000        0.00000000
     302         -0.803208        1.000000        0.00000000        0.00000000        0.00000000
     303         -0.802271        1.000000        0.00000000        0.00000000        0.00000000
     304         -0.801014        1.000000        0.00000000        0.00000000        0.00000000
     305         -0.800419        1.000000        0.00000000        0.00000000        0.00000000
     306         -0.800163        1.000000        0.00000000        0.00000000        0.00000000
     307         -0.798966        1.000000        0.00000000        0.00000000        0.00000000