# Projected DOS for atomic kind Ht at iteration step i = 0, E(Fermi) =    -0.245567 a.u.
#     MO Eigenvalue [a.u.]      Occupation                 s                 p
       1         -3.122063        1.000000        0.00000139        0.00005324
       2         -3.121278        1.000000        0.00000794        0.00009677
       3         -3.121021        1.000000        0.00000156        0.00002740
       4         -3.120578        1.000000        0.00000201        0.00007280
       5         -3.120271        1.000000        0.00000071        0.00003313
       6         -3.119857        1.000000        0.00000068        0.00002184
       7         -3.119652        1.000000        0.00000101        0.00002734
       8         -3.119624        1.000000        0.00000047        0.00001490
       9         -3.119219        1.000000        0.00000047        0.00001919
      10         -3.119023        1.000000        0.00000107        0.00001884
      11         -3.118913        1.000000        0.00000114        0.00002037
      12         -3.118874        1.000000        0.00000028        0.00000680
      13         -3.118317        1.000000        0.00000115        0.00002800
      14         -3.118249        1.000000        0.00000145        0.00003227
      15         -3.117895        1.000000        0.00000372        0.00003156
      16         -3.117383        1.000000        0.00000220        0.00003523
      17         -3.117165        1.000000        0.00000089        0.00001165
      18         -3.116815        1.000000        0.00000089        0.00002741
      19         -3.116436        1.000000        0.00000077        0.00001633
      20         -3.116021        1.000000        0.00000136        0.00003164
      21         -3.115852        1.000000        0.00000251        0.00001734
      22         -3.115668        1.000000        0.00000070        0.00003055
      23         -3.115368        1.000000        0.00000084        0.00001028
      24         -3.115339        1.000000        0.00000037        0.00000637
      25         -3.115041        1.000000        0.00000181        0.00002128
      26         -3.114366        1.000000        0.00000079        0.00001614
      27         -3.113951        1.000000        0.00000026        0.00000679
      28         -3.113764        1.000000        0.00000018        0.00000323
      29         -3.112534        1.000000        0.00000018        0.00000988
      30         -3.111679        1.000000        0.00000019        0.00001200
      31         -1.784233        1.000000        0.00000014        0.00000080
      32         -1.782870        1.000000        0.00000015        0.00000042
      33         -1.782324        1.000000        0.00000013        0.00000091
      34         -1.782130        1.000000        0.00000019        0.00000102
      35         -1.781736        1.000000        0.00000020        0.00000067
      36         -1.781230        1.000000        0.00000013        0.00000073
      37         -1.780847        1.000000        0.00000006        0.00000049
      38         -1.780487        1.000000        0.00000020        0.00000112
      39         -1.780184        1.000000        0.00000051        0.00000165
      40         -1.779550        1.000000        0.00000033        0.00000184
      41         -1.779259        1.000000        0.00000024        0.00000165
      42         -1.778921        1.000000        0.00000061        0.00000314
      43         -1.778390        1.000000        0.00000021        0.00000151
      44         -1.778140        1.000000        0.00000022        0.00000143
      45         -1.777912        1.000000        0.00000009        0.00000066
      46         -1.777514        1.000000        0.00000007        0.00000129
      47         -1.777362        1.000000        0.00000031        0.00000153
      48         -1.776787        1.000000        0.00000031        0.00000214
      49         -1.776537        1.000000        0.00000016        0.00000132
      50         -1.776457        1.000000        0.00000019        0.00000135
      51         -1.776029        1.000000        0.00000019        0.00000110
      52         -1.774038        1.000000        0.00000013        0.00000101
      53         -1.773797        1.000000        0.00000017        0.00000446
      54         -1.773665        1.000000        0.00000016        0.00000064
      55         -1.772725        1.000000        0.00000010        0.00000140
      56         -1.772546        1.000000        0.00000014        0.00000199
      57         -1.772041        1.000000        0.00000030        0.00000100
      58         -1.771662        1.000000        0.00000013        0.00000196
      59         -1.771364        1.000000        0.00000009        0.00000070
      60         -1.770813        1.000000        0.00000031        0.00000143
      61         -1.770640        1.000000        0.00000018        0.00000080
      62         -1.770449        1.000000        0.00000010        0.00000069
      63         -1.770188        1.000000        0.00000040        0.00000129
      64         -1.770126        1.000000        0.00000029        0.00000172
      65         -1.769991        1.000000        0.00000020        0.00000154
      66         -1.769845        1.000000        0.00000009        0.00000094
      67         -1.769763        1.000000        0.00000018        0.00000110
      68         -1.769661        1.000000        0.00000012        0.00000167
      69         -1.769465        1.000000        0.00000016        0.00000109
      70         -1.769351        1.000000        0.00000022        0.00000158
      71         -1.769328        1.000000        0.00000022        0.00000160
      72         -1.769216        1.000000        0.00000019        0.00000155
      73         -1.769129        1.000000        0.00000021        0.00000062
      74         -1.769070        1.000000        0.00000012        0.00000048
      75         -1.768941        1.000000        0.00000020        0.00000033
      76         -1.768822        1.000000        0.00000022        0.00000086
      77         -1.768707        1.000000        0.00000015        0.00000073
      78         -1.768585        1.000000        0.00000014        0.00000056
      79         -1.768439        1.000000        0.00000029        0.00000137
      80         -1.768329        1.000000        0.00000011        0.00000036
      81         -1.768089        1.000000        0.00000023        0.00000060
      82         -1.767883        1.000000        0.00000022        0.00000098
      83         -1.767662        1.000000        0.00000009        0.00000097
      84         -1.767495        1.000000        0.00000007        0.00000034
      85         -1.767311        1.000000        0.00000024        0.00000139
      86         -1.767266        1.000000        0.00000014        0.00000138
      87         -1.767060        1.000000        0.00000009        0.00000032
      88         -1.767025        1.000000        0.00000021        0.00000040
      89         -1.766872        1.000000        0.00000011        0.00000072
      90         -1.766524        1.000000        0.00000021        0.00000050
      91         -1.766405        1.000000        0.00000017        0.00000028
      92         -1.766254        1.000000        0.00000028        0.00000071
      93         -1.766123        1.000000        0.00000026        0.00000049
      94         -1.765857        1.000000        0.00000005        0.00000025
      95         -1.765515        1.000000        0.00000012        0.00000041
      96         -1.765181        1.000000        0.00000012        0.00000053
      97         -1.765105        1.000000        0.00000007        0.00000044
      98         -1.764967        1.000000        0.00000006        0.00000044
      99         -1.764710        1.000000        0.00000013        0.00000043
     100         -1.764440        1.000000        0.00000015        0.00000042
     101         -1.764248        1.000000        0.00000014        0.00000054
     102         -1.763945        1.000000        0.00000029        0.00000057
     103         -1.763804        1.000000        0.00000022        0.00000053
     104         -1.763351        1.000000        0.00000018        0.00000117
     105         -1.763205        1.000000        0.00000008        0.00000039
     106         -1.763107        1.000000        0.00000016        0.00000149
     107         -1.762531        1.000000        0.00000014        0.00000082
     108         -1.762343        1.000000        0.00000008        0.00000083
     109         -1.761453        1.000000        0.00000005        0.00000045
     110         -1.760969        1.000000        0.00000008        0.00000052
     111         -1.760481        1.000000        0.00000004        0.00000027
     112         -1.760009        1.000000        0.00000006        0.00000069
     113         -1.759531        1.000000        0.00000004        0.00000020
     114         -1.759105        1.000000        0.00000005        0.00000049
     115         -1.758777        1.000000        0.00000001        0.00000006
     116         -1.757462        1.000000        0.00000001        0.00000003
     117         -1.756221        1.000000        0.00000000        0.00000004
     118         -1.755333        1.000000        0.00000000        0.00000002
     119         -1.754385        1.000000        0.00000001        0.00000002
     120         -1.752742        1.000000        0.00000000        0.00000002
     121         -1.131181        1.000000        0.00347871        0.00318722
     122         -1.128658        1.000000        0.00635272        0.00554106
     123         -1.128000        1.000000        0.00651940        0.00539422
     124         -1.126427        1.000000        0.00042904        0.00036425
     125         -1.120469        1.000000        0.00230629        0.00193270
     126         -1.119202        1.000000        0.00531420        0.00422208
     127         -1.117081        1.000000        0.00927457        0.00648122
     128         -1.116156        1.000000        0.00904249        0.00665572
     129         -1.115054        1.000000        0.00945912        0.00699983
     130         -1.111818        1.000000        0.01297862        0.00870165
     131         -1.111610        1.000000        0.00627054        0.00444495
     132         -1.110976        1.000000        0.00428435        0.00279955
     133         -1.109888        1.000000        0.00904628        0.00604339
     134         -1.108601        1.000000        0.00161473        0.00137502
     135         -1.108036        1.000000        0.00677479        0.00380978
     136         -1.107349        1.000000        0.00606912        0.00392052
     137         -1.106797        1.000000        0.00226997        0.00171392
     138         -1.106077        1.000000        0.01125223        0.00680573
     139         -1.104162        1.000000        0.03163693        0.01537849
     140         -1.102892        1.000000        0.01077948        0.00778292
     141         -1.102196        1.000000        0.00854156        0.00511189
     142         -1.101581        1.000000        0.00792731        0.00491526
     143         -1.101215        1.000000        0.00944657        0.00496813
     144         -1.099602        1.000000        0.00845552        0.00491215
     145         -1.098107        1.000000        0.01053276        0.00501362
     146         -1.097450        1.000000        0.02297335        0.01186087
     147         -1.097046        1.000000        0.00799970        0.00431385
     148         -1.095795        1.000000        0.01233934        0.00542940
     149         -1.095192        1.000000        0.01148861        0.00519927
     150         -1.093515        1.000000        0.01361569        0.00645205
     151         -1.093123        1.000000        0.02223668        0.00947855
     152         -1.092614        1.000000        0.01630597        0.00803767
     153         -1.091821        1.000000        0.01263303        0.00794282
     154         -1.090761        1.000000        0.02614683        0.00908288
     155         -1.090597        1.000000        0.03421821        0.00891944
     156         -1.089544        1.000000        0.03820436        0.01435858
     157         -1.088154        1.000000        0.01977103        0.01154966
     158         -1.086960        1.000000        0.00900160        0.00362735
     159         -1.086718        1.000000        0.01026648        0.00449820
     160         -1.085525        1.000000        0.02775772        0.01852447
     161         -1.084219        1.000000        0.00409177        0.00131061
     162         -1.082734        1.000000        0.00805551        0.00417017
     163         -1.082381        1.000000        0.03680493        0.01839771
     164         -1.080807        1.000000        0.01548385        0.00647478
     165         -1.080293        1.000000        0.02513349        0.00502930
     166         -1.079453        1.000000        0.02328860        0.00489130
     167         -1.078246        1.000000        0.00929520        0.00482723
     168         -1.077774        1.000000        0.01698005        0.00731873
     169         -1.077143        1.000000        0.01039920        0.00482358
     170         -1.076426        1.000000        0.00429679        0.00294176
     171         -1.076145        1.000000        0.01156112        0.00399492
     172         -1.074526        1.000000        0.00843963        0.00610505
     173         -1.074368        1.000000        0.01047893        0.00606025
     174         -1.073652        1.000000        0.02125220        0.00438090
     175         -1.072808        1.000000        0.01540784        0.00906678
     176         -1.072152        1.000000        0.00800974        0.00427923
     177         -1.071192        1.000000        0.02098346        0.01121716
     178         -1.070444        1.000000        0.02849961        0.00951315
     179         -1.070141        1.000000        0.01590425        0.00660871
     180         -1.069416        1.000000        0.01121291        0.00413490
     181         -1.069179        1.000000        0.01836945        0.01167893
     182         -1.067610        1.000000        0.01666367        0.01091328
     183         -1.066240        1.000000        0.01349827        0.00866813
     184         -1.065124        1.000000        0.01205378        0.00758348
     185         -1.064565        1.000000        0.00884649        0.01069199
     186         -1.063575        1.000000        0.01725334        0.01279661
     187         -1.062901        1.000000        0.02469062        0.00750978
     188         -1.062274        1.000000        0.01927067        0.01065082
     189         -1.061481        1.000000        0.00973661        0.00592342
     190         -1.061312        1.000000        0.01377770        0.00770411
     191         -1.060592        1.000000        0.00821397        0.00816445
     192         -1.059297        1.000000        0.00622298        0.00433033
     193         -1.058643        1.000000        0.01143407        0.00674031
     194         -1.058262        1.000000        0.01526916        0.01870946
     195         -1.057127        1.000000        0.02374434        0.01609887
     196         -1.056224        1.000000        0.03196631        0.01816540
     197         -1.056050        1.000000        0.05335179        0.02908997
     198         -1.054881        1.000000        0.02008220        0.01745770
     199         -1.054669        1.000000        0.00917526        0.00604851
     200         -1.053605        1.000000        0.01137362        0.00750266
     201         -1.053457        1.000000        0.00478434        0.00508539
     202         -1.052589        1.000000        0.00273438        0.00233249
     203         -1.052089        1.000000        0.00607000        0.00575458
     204         -1.051299        1.000000        0.01022426        0.00756031
     205         -1.050676        1.000000        0.01320317        0.00757746
     206         -1.050307        1.000000        0.00937634        0.00781736
     207         -1.049921        1.000000        0.01492508        0.01094138
     208         -1.049485        1.000000        0.00583839        0.00463430
     209         -1.049126        1.000000        0.00650340        0.00427596
     210         -1.048445        1.000000        0.01488432        0.01224806
     211         -1.048201        1.000000        0.00612852        0.00752896
     212         -1.047911        1.000000        0.01171398        0.01025370
     213         -1.047620        1.000000        0.00355068        0.00462023
     214         -1.046931        1.000000        0.02082078        0.01180276
     215         -1.046733        1.000000        0.01237011        0.00840615
     216         -1.046634        1.000000        0.02180493        0.01184080
     217         -1.045930        1.000000        0.00332946        0.00206744
     218         -1.045069        1.000000        0.01947276        0.01019058
     219         -1.044350        1.000000        0.00354367        0.00173090
     220         -1.043623        1.000000        0.02650475        0.01963418
     221         -1.043421        1.000000        0.07210146        0.03391395
     222         -1.042778        1.000000        0.00307819        0.00166651
     223         -1.042701        1.000000        0.00378671        0.00300784
     224         -1.042424        1.000000        0.00900435        0.00666160
     225         -1.041682        1.000000        0.00990831        0.00822265
     226         -1.041498        1.000000        0.03225556        0.01711922
     227         -1.040837        1.000000        0.01430218        0.01161759
     228         -1.040496        1.000000        0.00372850        0.00229697
     229         -1.040151        1.000000        0.00841748        0.00731717
     230         -1.039686        1.000000        0.00174473        0.00170245
     231         -1.038961        1.000000        0.00405866        0.00330012
     232         -1.038553        1.000000        0.01194647        0.00789200
     233         -1.038476        1.000000        0.00611143        0.00548429
     234         -1.038152        1.000000        0.00093359        0.00079304
     235         -1.038041        1.000000        0.00128883        0.00096786
     236         -1.036855        1.000000        0.00963803        0.00913796
     237         -1.036488        1.000000        0.00998919        0.00931691
     238         -1.036186        1.000000        0.00201702        0.00132572
     239         -1.036068        1.000000        0.00285495        0.00227879
     240         -1.035757        1.000000        0.01497200        0.00734539
     241         -1.035291        1.000000        0.00604199        0.00513569
     242         -1.035048        1.000000        0.01104639        0.00706610
     243         -1.035000        1.000000        0.00598585        0.00390820
     244         -1.034454        1.000000        0.00309149        0.00290970
     245         -1.034219        1.000000        0.01297954        0.00982732
     246         -1.033874        1.000000        0.01179086        0.00908428
     247         -1.033507        1.000000        0.00123621        0.00086606
     248         -1.033219        1.000000        0.00741043        0.00693828
     249         -1.033056        1.000000        0.00538627        0.00406225
     250         -1.032307        1.000000        0.00900474        0.00633451
     251         -1.031324        1.000000        0.02251532        0.01478963
     252         -1.031144        1.000000        0.01879213        0.01174769
     253         -1.030643        1.000000        0.02035758        0.01197997
     254         -1.030284        1.000000        0.01011916        0.00684514
     255         -1.030062        1.000000        0.00796716        0.00507143
     256         -1.029818        1.000000        0.00976094        0.00673033
     257         -1.028552        1.000000        0.00341269        0.00191883
     258         -1.027578        1.000000        0.01282774        0.00809574
     259         -1.027121        1.000000        0.00132729        0.00103837
     260         -1.026880        1.000000        0.01437832        0.00855742
     261         -1.026226        1.000000        0.00703014        0.00417781
     262         -1.025765        1.000000        0.00200888        0.00124395
     263         -1.025299        1.000000        0.00029961        0.00017494
     264         -1.025158        1.000000        0.00607594        0.00416877
     265         -1.025007        1.000000        0.01074401        0.00826792
     266         -1.024422        1.000000        0.01149824        0.00812543
     267         -1.023793        1.000000        0.00120802        0.00085208
     268         -1.023594        1.000000        0.02487379        0.01624695
     269         -1.023069        1.000000        0.02129574        0.01460379
     270         -1.022603        1.000000        0.00987645        0.00664416
     271         -1.022074        1.000000        0.00925737        0.00706181
     272         -1.021695        1.000000        0.00261067        0.00164273
     273         -1.021372        1.000000        0.00027348        0.00020476
     274         -1.021076        1.000000        0.03710552        0.02872540
     275         -1.019492        1.000000        0.00895134        0.00642681
     276         -1.018003        1.000000        0.00031753        0.00020805
     277         -1.016408        1.000000        0.03640774        0.02619960
     278         -1.016278        1.000000        0.00378281        0.00269200
     279         -1.015338        1.000000        0.00303261        0.00130458
     280         -1.013851        1.000000        0.00014258        0.00009383
     281         -1.010223        1.000000        0.00997065        0.00552399
     282         -1.009666        1.000000        0.00000695        0.00000314
     283         -1.007726        1.000000        0.10178664        0.07894743
     284         -1.007300        1.000000        0.01039841        0.00802346
     285         -1.006916        1.000000        0.00004194        0.00003202
     286         -0.889442        1.000000        0.00000588        0.00095349
     287         -0.869424        1.000000        0.00000776        0.00090932
     288         -0.867225        1.000000        0.00000502        0.00051306
     289         -0.864755        1.000000        0.00001102        0.00073523
     290         -0.860947        1.000000        0.00000820        0.00054369
     291         -0.846899        1.000000        0.00001764        0.00057445
     292         -0.844423        1.000000        0.00000681        0.00038840
     293         -0.843782        1.000000        0.00002517        0.00062151
     294         -0.840445        1.000000        0.00000250        0.00026544
     295         -0.821748        1.000000        0.00000655        0.00017371
     296         -0.818927        1.000000        0.00003483        0.00043412
     297         -0.814033        1.000000        0.00001063        0.00103051
     298         -0.808071        1.000000        0.00000767        0.00027884
     299         -0.807076        1.000000        0.00000458        0.00035285
     300         -0.806003        1.000000        0.00000667        0.00024121
     301         -0.805433        1.000000        0.00004768        0.00064432
     302         -0.803208        1.000000        0.00000513        0.00020281
     303         -0.802271        1.000000        0.00001525        0.00044030
     304         -0.801014        1.000000        0.00001559        0.00037162
     305         -0.800419        1.000000        0.00001407        0.00030474
     306         -0.800163        1.000000        0.00002437        0.00032895
     307         -0.798966        1.000000        0.00001511        0.00019167
     308         -0.796270        1.000000        0.00003253        0.00042443
     309         -0.795746        1.000000        0.00003148        0.00039234
     310         -0.794333        1.000000        0.00001475        0.00020506
     311         -0.792293        1.000000        0.00000625        0.00022707
     312         -0.791548        1.000000        0.00000595        0.00010533
     313         -0.790603        1.000000        0.00003681        0.00030978
     314         -0.790424        1.000000        0.00002235        0.00022180
     315         -0.789930        1.000000        0.00000940        0.00012815
     316         -0.788450        1.000000        0.00000445        0.00009958
     317         -0.787526        1.000000        0.00001555        0.00022334
     318         -0.786788        1.000000        0.00001471        0.00013375
     319         -0.781836        1.000000        0.00002388        0.00013383
     320         -0.780998        1.000000        0.00002347        0.00019329
     321         -0.780477        1.000000        0.00000644        0.00010895
     322         -0.779060        1.000000        0.00001369        0.00014819
     323         -0.778943        1.000000        0.00002312        0.00018905
     324         -0.777233        1.000000        0.00001925        0.00019069
     325         -0.775897        1.000000        0.00001168        0.00011231
     326         -0.774887        1.000000        0.00000923        0.00008026
     327         -0.773671        1.000000        0.00002520        0.00015027
     328         -0.773422        1.000000        0.00001185        0.00006741
     329         -0.772414        1.000000        0.00003247        0.00013862
     330         -0.771266        1.000000        0.00002688        0.00011762
     331         -0.770604        1.000000        0.00001686        0.00010852
     332         -0.769886        1.000000        0.00000603        0.00005125
     333         -0.769439        1.000000        0.00000768        0.00006702
     334         -0.769009        1.000000        0.00001107        0.00008703
     335         -0.767483        1.000000        0.00000921        0.00008783
     336         -0.766717        1.000000        0.00000342        0.00004490
     337         -0.765490        1.000000        0.00001236        0.00011037
     338         -0.763700        1.000000        0.00000816        0.00005669
     339         -0.762625        1.000000        0.00002022        0.00010268
     340         -0.761653        1.000000        0.00002884        0.00012105
     341         -0.761196        1.000000        0.00000648        0.00003241
     342         -0.759265        1.000000        0.00003837        0.00017940
     343         -0.758410        1.000000        0.00002064        0.00009872
     344         -0.755260        1.000000        0.00000436        0.00002567
     345         -0.754586        1.000000        0.00000752        0.00003767
     346         -0.703685        1.000000        0.00158305        0.00025841
     347         -0.693847        1.000000        0.00234876        0.00036324
     348         -0.690060        1.000000        0.00300767        0.00044075
     349         -0.688902        1.000000        0.00199496        0.00028506
     350         -0.684111        1.000000        0.00558525        0.00062517
     351         -0.681092        1.000000        0.00213981        0.00033175
     352         -0.678905        1.000000        0.00437380        0.00050643
     353         -0.676982        1.000000        0.00232837        0.00036645
     354         -0.673929        1.000000        0.00531487        0.00054540
     355         -0.673106        1.000000        0.00282462        0.00027154
     356         -0.670728        1.000000        0.00505976        0.00061354
     357         -0.670092        1.000000        0.00563270        0.00050509
     358         -0.669168        1.000000        0.00615611        0.00090275
     359         -0.667801        1.000000        0.00349818        0.00043478
     360         -0.665884        1.000000        0.00558391        0.00045106
     361         -0.664702        1.000000        0.00483393        0.00058779
     362         -0.662263        1.000000        0.00413441        0.00062631
     363         -0.660875        1.000000        0.00569837        0.00061176
     364         -0.658191        1.000000        0.00651213        0.00059794
     365         -0.657373        1.000000        0.00469545        0.00065293
     366         -0.655967        1.000000        0.00700428        0.00054726
     367         -0.655536        1.000000        0.00911583        0.00101018
     368         -0.653752        1.000000        0.01023217        0.00107229
     369         -0.651127        1.000000        0.00414157        0.00051985
     370         -0.648938        1.000000        0.00306100        0.00052257
     371         -0.647875        1.000000        0.00696559        0.00081564
     372         -0.644925        1.000000        0.00639806        0.00069315
     373         -0.644581        1.000000        0.00405723        0.00044725
     374         -0.641910        1.000000        0.00876701        0.00064348
     375         -0.641212        1.000000        0.00855373        0.00102447
     376         -0.639876        1.000000        0.00391129        0.00067834
     377         -0.637901        1.000000        0.00764297        0.00068960