# Projected DOS for list 33 of 1 atoms, at iteration step i = 0, E(Fermi) =    -0.245567 a.u.
#     MO Eigenvalue [a.u.]      Occupation                 s                 p                 d
       1         -3.122063        1.000000        0.00000000        0.00000000        0.00000000
       2         -3.121278        1.000000        0.00000000        0.00000000        0.00000000
       3         -3.121021        1.000000        0.00000000        0.00000000        0.00000000
       4         -3.120578        1.000000        0.00000000        0.00000000        0.00000000
       5         -3.120271        1.000000        0.00000000        0.00000000        0.00000000
       6         -3.119857        1.000000        0.00000000        0.00000000        0.00000000
       7         -3.119652        1.000000        0.00000000        0.00000000        0.00000000
       8         -3.119624        1.000000        0.00000000        0.00000000        0.00000000
       9         -3.119219        1.000000        0.00000000        0.00000000        0.00000000
      10         -3.119023        1.000000        0.00000000        0.00000000        0.00000000
      11         -3.118913        1.000000        0.00000000        0.00000000        0.00000000
      12         -3.118874        1.000000        0.00000000        0.00000000        0.00000000
      13         -3.118317        1.000000        0.00000000        0.00000000        0.00000000
      14         -3.118249        1.000000        0.00000000        0.00000000        0.00000000
      15         -3.117895        1.000000        0.00000000        0.00000000        0.00000000
      16         -3.117383        1.000000        0.00000000        0.00000000        0.00000000
      17         -3.117165        1.000000        0.00000000        0.00000000        0.00000000
      18         -3.116815        1.000000        0.00000000        0.00000000        0.00000000
      19         -3.116436        1.000000        0.00000000        0.00000000        0.00000000
      20         -3.116021        1.000000        0.00000000        0.00000000        0.00000000
      21         -3.115852        1.000000        0.00000000        0.00000000        0.00000000
      22         -3.115668        1.000000        0.00000000        0.00000000        0.00000000
      23         -3.115368        1.000000        0.00000000        0.00000000        0.00000000
      24         -3.115339        1.000000        0.00000000        0.00000000        0.00000000
      25         -3.115041        1.000000        0.00000000        0.00000000        0.00000000
      26         -3.114366        1.000000        0.00000000        0.00000000        0.00000000
      27         -3.113951        1.000000        0.00000000        0.00000000        0.00000000
      28         -3.113764        1.000000        0.00000000        0.00000000        0.00000000
      29         -3.112534        1.000000        0.00000000        0.00000000        0.00000000
      30         -3.111679        1.000000        0.00000000        0.00000000        0.00000000
      31         -1.784233        1.000000        0.00000000        0.00000000        0.00000000
      32         -1.782870        1.000000        0.00000000        0.00000000        0.00000000
      33         -1.782324        1.000000        0.00000000        0.00000000        0.00000000
      34         -1.782130        1.000000        0.00000000        0.00000000        0.00000000
      35         -1.781736        1.000000        0.00000000        0.00000000        0.00000000
      36         -1.781230        1.000000        0.00000000        0.00000000        0.00000000
      37         -1.780847        1.000000        0.00000000        0.00000000        0.00000000
      38         -1.780487        1.000000        0.00000000        0.00000000        0.00000000
      39         -1.780184        1.000000        0.00000000        0.00000000        0.00000000
      40         -1.779550        1.000000        0.00000000        0.00000000        0.00000000
      41         -1.779259        1.000000        0.00000000        0.00000000        0.00000000
      42         -1.778921        1.000000        0.00000000        0.00000000        0.00000000
      43         -1.778390        1.000000        0.00000000        0.00000000        0.00000000
      44         -1.778140        1.000000        0.00000000        0.00000000        0.00000000
      45         -1.777912        1.000000        0.00000000        0.00000000        0.00000000
      46         -1.777514        1.000000        0.00000000        0.00000000        0.00000000
      47         -1.777362        1.000000        0.00000000        0.00000000        0.00000000
      48         -1.776787        1.000000        0.00000000        0.00000000        0.00000000
      49         -1.776537        1.000000        0.00000000        0.00000000        0.00000000
      50         -1.776457        1.000000        0.00000000        0.00000000        0.00000000
      51         -1.776029        1.000000        0.00000000        0.00000000        0.00000000
      52         -1.774038        1.000000        0.00000000        0.00000000        0.00000000
      53         -1.773797        1.000000        0.00000000        0.00000000        0.00000000
      54         -1.773665        1.000000        0.00000000        0.00000000        0.00000000
      55         -1.772725        1.000000        0.00000000        0.00000000        0.00000000
      56         -1.772546        1.000000        0.00000000        0.00000000        0.00000000
      57         -1.772041        1.000000        0.00000000        0.00000000        0.00000000
      58         -1.771662        1.000000        0.00000000        0.00000000        0.00000000
      59         -1.771364        1.000000        0.00000000        0.00000000        0.00000000
      60         -1.770813        1.000000        0.00000000        0.00000000        0.00000000
      61         -1.770640        1.000000        0.00000000        0.00000000        0.00000000
      62         -1.770449        1.000000        0.00000000        0.00000000        0.00000000
      63         -1.770188        1.000000        0.00000000        0.00000000        0.00000000
      64         -1.770126        1.000000        0.00000000        0.00000000        0.00000000
      65         -1.769991        1.000000        0.00000000        0.00000000        0.00000000
      66         -1.769845        1.000000        0.00000000        0.00000000        0.00000000
      67         -1.769763        1.000000        0.00000000        0.00000000        0.00000000
      68         -1.769661        1.000000        0.00000000        0.00000000        0.00000000
      69         -1.769465        1.000000        0.00000000        0.00000000        0.00000000
      70         -1.769351        1.000000        0.00000000        0.00000000        0.00000000
      71         -1.769328        1.000000        0.00000000        0.00000000        0.00000000
      72         -1.769216        1.000000        0.00000000        0.00000000        0.00000000
      73         -1.769129        1.000000        0.00000000        0.00000000        0.00000000
      74         -1.769070        1.000000        0.00000000        0.00000000        0.00000000
      75         -1.768941        1.000000        0.00000000        0.00000000        0.00000000
      76         -1.768822        1.000000        0.00000000        0.00000000        0.00000000
      77         -1.768707        1.000000        0.00000000        0.00000000        0.00000000
      78         -1.768585        1.000000        0.00000000        0.00000000        0.00000000
      79         -1.768439        1.000000        0.00000000        0.00000000        0.00000000
      80         -1.768329        1.000000        0.00000000        0.00000000        0.00000000
      81         -1.768089        1.000000        0.00000000        0.00000000        0.00000000
      82         -1.767883        1.000000        0.00000000        0.00000000        0.00000000
      83         -1.767662        1.000000        0.00000000        0.00000000        0.00000000
      84         -1.767495        1.000000        0.00000000        0.00000000        0.00000000
      85         -1.767311        1.000000        0.00000000        0.00000000        0.00000000
      86         -1.767266        1.000000        0.00000000        0.00000000        0.00000000
      87         -1.767060        1.000000        0.00000000        0.00000000        0.00000000
      88         -1.767025        1.000000        0.00000000        0.00000000        0.00000000
      89         -1.766872        1.000000        0.00000000        0.00000000        0.00000000
      90         -1.766524        1.000000        0.00000000        0.00000000        0.00000000
      91         -1.766405        1.000000        0.00000000        0.00000000        0.00000000
      92         -1.766254        1.000000        0.00000000        0.00000000        0.00000000
      93         -1.766123        1.000000        0.00000000        0.00000000        0.00000000
      94         -1.765857        1.000000        0.00000000        0.00000000        0.00000000
      95         -1.765515        1.000000        0.00000000        0.00000000        0.00000000
      96         -1.765181        1.000000        0.00000000        0.00000000        0.00000000
      97         -1.765105        1.000000        0.00000000        0.00000000        0.00000000
      98         -1.764967        1.000000        0.00000000        0.00000000        0.00000000
      99         -1.764710        1.000000        0.00000000        0.00000000        0.00000000
     100         -1.764440        1.000000        0.00000000        0.00000000        0.00000000
     101         -1.764248        1.000000        0.00000000        0.00000000        0.00000000
     102         -1.763945        1.000000        0.00000000        0.00000000        0.00000000
     103         -1.763804        1.000000        0.00000000        0.00000000        0.00000000
     104         -1.763351        1.000000        0.00000000        0.00000000        0.00000000
     105         -1.763205        1.000000        0.00000000        0.00000000        0.00000000
     106         -1.763107        1.000000        0.00000000        0.00000000        0.00000000
     107         -1.762531        1.000000        0.00000000        0.00000000        0.00000000
     108         -1.762343        1.000000        0.00000000        0.00000000        0.00000000
     109         -1.761453        1.000000        0.00000000        0.00000000        0.00000000
     110         -1.760969        1.000000        0.00000000        0.00000000        0.00000000
     111         -1.760481        1.000000        0.00000000        0.00000000        0.00000000
     112         -1.760009        1.000000        0.00000000        0.00000000        0.00000000
     113         -1.759531        1.000000        0.00000000        0.00000000        0.00000000
     114         -1.759105        1.000000        0.00000000        0.00000000        0.00000000
     115         -1.758777        1.000000        0.00000000        0.00000000        0.00000000
     116         -1.757462        1.000000        0.00000000        0.00000000        0.00000000
     117         -1.756221        1.000000        0.00000000        0.00000000        0.00000000
     118         -1.755333        1.000000        0.00000000        0.00000000        0.00000000
     119         -1.754385        1.000000        0.00000000        0.00000000        0.00000000
     120         -1.752742        1.000000        0.00000000        0.00000000        0.00000000
     121         -1.131181        1.000000        0.00025994        0.00003851        0.00000698
     122         -1.128658        1.000000        0.00003563        0.00001972        0.00000254
     123         -1.128000        1.000000        0.00064136        0.00012516        0.00002048
     124         -1.126427        1.000000        0.00019820        0.00001841        0.00000481
     125         -1.120469        1.000000        0.00005412        0.00002499        0.00000308
     126         -1.119202        1.000000        0.00000631        0.00000723        0.00000065
     127         -1.117081        1.000000        0.00023307        0.00005049        0.00000820
     128         -1.116156        1.000000        0.00019539        0.00003112        0.00000417
     129         -1.115054        1.000000        0.00013981        0.00001513        0.00000405
     130         -1.111818        1.000000        0.00123308        0.00020692        0.00002750
     131         -1.111610        1.000000        0.00000083        0.00000127        0.00000018
     132         -1.110976        1.000000        0.00081153        0.00006450        0.00001984
     133         -1.109888        1.000000        0.00427893        0.00036433        0.00007766
     134         -1.108601        1.000000        0.01354969        0.00119250        0.00025262
     135         -1.108036        1.000000        0.00297113        0.00035624        0.00006563
     136         -1.107349        1.000000        0.00069528        0.00009325        0.00001314
     137         -1.106797        1.000000        0.00655334        0.00024615        0.00011603
     138         -1.106077        1.000000        0.00090507        0.00006461        0.00001505
     139         -1.104162        1.000000        0.00002646        0.00010477        0.00000607
     140         -1.102892        1.000000        0.00148965        0.00005351        0.00002544
     141         -1.102196        1.000000        0.00887035        0.00040549        0.00014097
     142         -1.101581        1.000000        0.00063430        0.00005552        0.00000914
     143         -1.101215        1.000000        0.00003769        0.00015619        0.00000540
     144         -1.099602        1.000000        0.00691617        0.00047658        0.00010735
     145         -1.098107        1.000000        0.00887278        0.00030549        0.00011439
     146         -1.097450        1.000000        0.00127276        0.00027346        0.00002373
     147         -1.097046        1.000000        0.00076057        0.00008029        0.00001983
     148         -1.095795        1.000000        0.00057356        0.00007317        0.00000607
     149         -1.095192        1.000000        0.01023723        0.00031739        0.00012680
     150         -1.093515        1.000000        0.01002996        0.00024985        0.00012446
     151         -1.093123        1.000000        0.00222283        0.00007820        0.00002149
     152         -1.092614        1.000000        0.03011829        0.00075701        0.00035808
     153         -1.091821        1.000000        0.00000346        0.00010369        0.00000583
     154         -1.090761        1.000000        0.00574314        0.00067360        0.00011594
     155         -1.090597        1.000000        0.00178409        0.00013833        0.00003180
     156         -1.089544        1.000000        0.00000043        0.00003283        0.00000823
     157         -1.088154        1.000000        0.00663061        0.00159302        0.00017826
     158         -1.086960        1.000000        0.00624291        0.00082176        0.00013274
     159         -1.086718        1.000000        0.00207170        0.00069125        0.00006224
     160         -1.085525        1.000000        0.00089669        0.00002682        0.00000927
     161         -1.084219        1.000000        0.00256448        0.00005833        0.00002909
     162         -1.082734        1.000000        0.00347396        0.00010479        0.00006359
     163         -1.082381        1.000000        0.00107555        0.00023143        0.00001281
     164         -1.080807        1.000000        0.00358013        0.00012198        0.00002346
     165         -1.080293        1.000000        0.01479582        0.00093634        0.00010899
     166         -1.079453        1.000000        0.00033035        0.00016331        0.00002175
     167         -1.078246        1.000000        0.00614011        0.00033459        0.00006336
     168         -1.077774        1.000000        0.00002581        0.00000266        0.00000191
     169         -1.077143        1.000000        0.00331921        0.00011259        0.00004417
     170         -1.076426        1.000000        0.00064724        0.00004397        0.00001772
     171         -1.076145        1.000000        0.00610407        0.00016944        0.00004250
     172         -1.074526        1.000000        0.00533153        0.00084950        0.00006615
     173         -1.074368        1.000000        0.00544477        0.00010951        0.00003759
     174         -1.073652        1.000000        0.00100367        0.00019143        0.00002283
     175         -1.072808        1.000000        0.00027988        0.00093338        0.00003311
     176         -1.072152        1.000000        0.00010645        0.00015508        0.00000869
     177         -1.071192        1.000000        0.00198598        0.00058753        0.00007687
     178         -1.070444        1.000000        0.00245678        0.00036184        0.00005211
     179         -1.070141        1.000000        0.00066622        0.00083942        0.00003394
     180         -1.069416        1.000000        0.00169764        0.00020278        0.00002877
     181         -1.069179        1.000000        0.00006426        0.00004973        0.00000411
     182         -1.067610        1.000000        0.00010145        0.00080923        0.00001723
     183         -1.066240        1.000000        0.00010888        0.00006469        0.00000170
     184         -1.065124        1.000000        0.00046723        0.00007791        0.00002422
     185         -1.064565        1.000000        0.00010652        0.00000552        0.00001416
     186         -1.063575        1.000000        0.00015870        0.00000554        0.00000319
     187         -1.062901        1.000000        0.00202702        0.00072912        0.00006549
     188         -1.062274        1.000000        0.00065214        0.00007756        0.00001910
     189         -1.061481        1.000000        0.00001685        0.00001474        0.00002019
     190         -1.061312        1.000000        0.00047984        0.00017311        0.00001353
     191         -1.060592        1.000000        0.00094850        0.00028226        0.00003648
     192         -1.059297        1.000000        0.00191094        0.00036645        0.00001068
     193         -1.058643        1.000000        0.00510530        0.00019167        0.00003673
     194         -1.058262        1.000000        0.00060086        0.00006112        0.00000813
     195         -1.057127        1.000000        0.00042996        0.00000834        0.00000438
     196         -1.056224        1.000000        0.00003789        0.00001454        0.00000176
     197         -1.056050        1.000000        0.00001390        0.00004331        0.00000240
     198         -1.054881        1.000000        0.00326417        0.00014223        0.00000926
     199         -1.054669        1.000000        0.00045915        0.00031485        0.00000451
     200         -1.053605        1.000000        0.00245753        0.00009091        0.00003323
     201         -1.053457        1.000000        0.00432886        0.00024520        0.00001351
     202         -1.052589        1.000000        0.00082194        0.00003630        0.00000623
     203         -1.052089        1.000000        0.00396275        0.00022227        0.00003835
     204         -1.051299        1.000000        0.02386513        0.00042133        0.00014816
     205         -1.050676        1.000000        0.02683919        0.00092708        0.00004248
     206         -1.050307        1.000000        0.00054702        0.00004327        0.00000246
     207         -1.049921        1.000000        0.00007285        0.00015205        0.00013539
     208         -1.049485        1.000000        0.03054545        0.00045521        0.00010376
     209         -1.049126        1.000000        0.00260293        0.00004466        0.00000741
     210         -1.048445        1.000000        0.00081538        0.00011141        0.00002802
     211         -1.048201        1.000000        0.00384156        0.00010713        0.00014039
     212         -1.047911        1.000000        0.00519479        0.00041570        0.00005643
     213         -1.047620        1.000000        0.00511578        0.00007478        0.00003540
     214         -1.046931        1.000000        0.00182098        0.00004082        0.00000688
     215         -1.046733        1.000000        0.01580873        0.00030487        0.00001663
     216         -1.046634        1.000000        0.00000111        0.00014205        0.00011004
     217         -1.045930        1.000000        0.00106707        0.00006239        0.00004256
     218         -1.045069        1.000000        0.00411633        0.00010455        0.00002708
     219         -1.044350        1.000000        0.00247370        0.00004543        0.00004895
     220         -1.043623        1.000000        0.00008970        0.00000218        0.00000058
     221         -1.043421        1.000000        0.00085549        0.00000802        0.00000268
     222         -1.042778        1.000000        0.00015122        0.00020015        0.00016364
     223         -1.042701        1.000000        0.00137596        0.00005208        0.00002327
     224         -1.042424        1.000000        0.00033711        0.00000687        0.00000888
     225         -1.041682        1.000000        0.00035658        0.00001118        0.00000798
     226         -1.041498        1.000000        0.00002411        0.00000336        0.00000039
     227         -1.040837        1.000000        0.00016443        0.00002100        0.00000935
     228         -1.040496        1.000000        0.00064184        0.00007189        0.00002221
     229         -1.040151        1.000000        0.00031706        0.00007942        0.00003123
     230         -1.039686        1.000000        0.00004528        0.00026123        0.00010837
     231         -1.038961        1.000000        0.00000830        0.00000942        0.00000221
     232         -1.038553        1.000000        0.00044646        0.00018608        0.00012453
     233         -1.038476        1.000000        0.00036881        0.00001229        0.00000834
     234         -1.038152        1.000000        0.00002189        0.00001155        0.00000502
     235         -1.038041        1.000000        0.00020550        0.00001573        0.00000777
     236         -1.036855        1.000000        0.00000098        0.00002077        0.00000302
     237         -1.036488        1.000000        0.00312772        0.00002859        0.00000930
     238         -1.036186        1.000000        0.00550975        0.00022156        0.00005694
     239         -1.036068        1.000000        0.00282214        0.00009791        0.00005477
     240         -1.035757        1.000000        0.00006608        0.00000541        0.00000301
     241         -1.035291        1.000000        0.00016814        0.00002529        0.00000585
     242         -1.035048        1.000000        0.00190551        0.00007623        0.00002734
     243         -1.035000        1.000000        0.00677362        0.00018696        0.00002810
     244         -1.034454        1.000000        0.00472763        0.00005202        0.00001874
     245         -1.034219        1.000000        0.00045672        0.00001584        0.00000117
     246         -1.033874        1.000000        0.00116511        0.00001802        0.00000311
     247         -1.033507        1.000000        0.05195039        0.00060972        0.00001324
     248         -1.033219        1.000000        0.00373997        0.00003916        0.00000429
     249         -1.033056        1.000000        0.00781502        0.00007536        0.00000963
     250         -1.032307        1.000000        0.00037460        0.00000497        0.00000344
     251         -1.031324        1.000000        0.01231802        0.00014784        0.00000612
     252         -1.031144        1.000000        0.04304775        0.00052295        0.00003016
     253         -1.030643        1.000000        0.00100040        0.00001844        0.00000466
     254         -1.030284        1.000000        0.00616597        0.00007729        0.00001961
     255         -1.030062        1.000000        0.00126580        0.00001340        0.00000080
     256         -1.029818        1.000000        0.00012723        0.00000265        0.00000087
     257         -1.028552        1.000000        0.02028601        0.00022836        0.00001970
     258         -1.027578        1.000000        0.00012684        0.00000487        0.00000383
     259         -1.027121        1.000000        0.00006249        0.00000619        0.00000802
     260         -1.026880        1.000000        0.00030283        0.00003906        0.00005807
     261         -1.026226        1.000000        0.00697813        0.00009249        0.00004243
     262         -1.025765        1.000000        0.00108345        0.00027347        0.00013949
     263         -1.025299        1.000000        0.00002461        0.00000566        0.00000149
     264         -1.025158        1.000000        0.00037145        0.00002207        0.00000253
     265         -1.025007        1.000000        0.00060414        0.00001067        0.00000027
     266         -1.024422        1.000000        0.00023058        0.00000717        0.00000478
     267         -1.023793        1.000000        0.00590756        0.00033909        0.00013252
     268         -1.023594        1.000000        0.00010614        0.00000410        0.00000239
     269         -1.023069        1.000000        0.00023058        0.00002914        0.00001547
     270         -1.022603        1.000000        0.00004200        0.00000903        0.00000249
     271         -1.022074        1.000000        0.00000072        0.00000012        0.00000023
     272         -1.021695        1.000000        0.00005622        0.00000197        0.00000180
     273         -1.021372        1.000000        0.00013934        0.00000962        0.00000144
     274         -1.021076        1.000000        0.00000001        0.00000007        0.00000008
     275         -1.019492        1.000000        0.00001255        0.00000056        0.00000119
     276         -1.018003        1.000000        0.00000127        0.00002980        0.00006525
     277         -1.016408        1.000000        0.00003688        0.00000163        0.00000042
     278         -1.016278        1.000000        0.00038305        0.00001730        0.00000327
     279         -1.015338        1.000000        0.00000050        0.00000077        0.00000018
     280         -1.013851        1.000000        0.00015733        0.00000343        0.00000725
     281         -1.010223        1.000000        0.00000145        0.00000002        0.00000002
     282         -1.009666        1.000000        0.00241941        0.00014098        0.00004105
     283         -1.007726        1.000000        0.00000000        0.00000006        0.00000002
     284         -1.007300        1.000000        0.00002744        0.00000680        0.00000395
     285         -1.006916        1.000000        0.00561093        0.00093485        0.00062457
     286         -0.889442        1.000000        0.00000000        0.00000000        0.00000000
     287         -0.869424        1.000000        0.00000000        0.00000000        0.00000000
     288         -0.867225        1.000000        0.00000000        0.00000000        0.00000000
     289         -0.864755        1.000000        0.00000000        0.00000000        0.00000000
     290         -0.860947        1.000000        0.00000000        0.00000000        0.00000000
     291         -0.846899        1.000000        0.00000000        0.00000000        0.00000000
     292         -0.844423        1.000000        0.00000000        0.00000000        0.00000000
     293         -0.843782        1.000000        0.00000000        0.00000000        0.00000000
     294         -0.840445        1.000000        0.00000000        0.00000000        0.00000000
     295         -0.821748        1.000000        0.00000000        0.00000000        0.00000000
     296         -0.818927        1.000000        0.00000000        0.00000000        0.00000000
     297         -0.814033        1.000000        0.00000000        0.00000000        0.00000000
     298         -0.808071        1.000000        0.00000000        0.00000000        0.00000000
     299         -0.807076        1.000000        0.00000000        0.00000000        0.00000000
     300         -0.806003        1.000000        0.00000000        0.00000000        0.00000000
     301         -0.805433        1.000000        0.00000000        0.00000000        0.00000000
     302         -0.803208        1.000000        0.00000000        0.00000000        0.00000000
     303         -0.802271        1.000000        0.00000000        0.00000000        0.00000000
     304         -0.801014        1.000000        0.00000000        0.00000000        0.00000000
     305         -0.800419        1.000000        0.00000000        0.00000000        0.00000000
     306         -0.800163        1.000000        0.00000000        0.00000000        0.00000000
     307         -0.798966        1.000000        0.00000000        0.00000000        0.00000000