# Projected DOS for list 19 of 1 atoms, at iteration step i = 0, E(Fermi) =    -0.245567 a.u.
#     MO Eigenvalue [a.u.]      Occupation                 s                 p                 d
       1         -3.122063        1.000000        0.00000000        0.00000000        0.00000000
       2         -3.121278        1.000000        0.00000000        0.00000000        0.00000000
       3         -3.121021        1.000000        0.00000000        0.00000000        0.00000000
       4         -3.120578        1.000000        0.00000000        0.00000000        0.00000000
       5         -3.120271        1.000000        0.00000000        0.00000000        0.00000000
       6         -3.119857        1.000000        0.00000000        0.00000000        0.00000000
       7         -3.119652        1.000000        0.00000000        0.00000000        0.00000000
       8         -3.119624        1.000000        0.00000000        0.00000000        0.00000000
       9         -3.119219        1.000000        0.00000000        0.00000000        0.00000000
      10         -3.119023        1.000000        0.00000000        0.00000000        0.00000000
      11         -3.118913        1.000000        0.00000000        0.00000000        0.00000000
      12         -3.118874        1.000000        0.00000000        0.00000000        0.00000000
      13         -3.118317        1.000000        0.00000000        0.00000000        0.00000000
      14         -3.118249        1.000000        0.00000000        0.00000000        0.00000000
      15         -3.117895        1.000000        0.00000000        0.00000000        0.00000000
      16         -3.117383        1.000000        0.00000000        0.00000000        0.00000000
      17         -3.117165        1.000000        0.00000000        0.00000000        0.00000000
      18         -3.116815        1.000000        0.00000000        0.00000000        0.00000000
      19         -3.116436        1.000000        0.00000000        0.00000000        0.00000000
      20         -3.116021        1.000000        0.00000000        0.00000000        0.00000000
      21         -3.115852        1.000000        0.00000000        0.00000000        0.00000000
      22         -3.115668        1.000000        0.00000000        0.00000000        0.00000000
      23         -3.115368        1.000000        0.00000000        0.00000000        0.00000000
      24         -3.115339        1.000000        0.00000000        0.00000000        0.00000000
      25         -3.115041        1.000000        0.00000000        0.00000000        0.00000000
      26         -3.114366        1.000000        0.00000000        0.00000000        0.00000000
      27         -3.113951        1.000000        0.00000000        0.00000000        0.00000000
      28         -3.113764        1.000000        0.00000000        0.00000000        0.00000000
      29         -3.112534        1.000000        0.00000000        0.00000000        0.00000000
      30         -3.111679        1.000000        0.00000000        0.00000000        0.00000000
      31         -1.784233        1.000000        0.00000000        0.00000000        0.00000000
      32         -1.782870        1.000000        0.00000000        0.00000000        0.00000000
      33         -1.782324        1.000000        0.00000000        0.00000000        0.00000000
      34         -1.782130        1.000000        0.00000000        0.00000000        0.00000000
      35         -1.781736        1.000000        0.00000000        0.00000000        0.00000000
      36         -1.781230        1.000000        0.00000000        0.00000000        0.00000000
      37         -1.780847        1.000000        0.00000000        0.00000000        0.00000000
      38         -1.780487        1.000000        0.00000000        0.00000000        0.00000000
      39         -1.780184        1.000000        0.00000000        0.00000000        0.00000000
      40         -1.779550        1.000000        0.00000000        0.00000000        0.00000000
      41         -1.779259        1.000000        0.00000000        0.00000000        0.00000000
      42         -1.778921        1.000000        0.00000000        0.00000000        0.00000000
      43         -1.778390        1.000000        0.00000000        0.00000000        0.00000000
      44         -1.778140        1.000000        0.00000000        0.00000000        0.00000000
      45         -1.777912        1.000000        0.00000000        0.00000000        0.00000000
      46         -1.777514        1.000000        0.00000000        0.00000000        0.00000000
      47         -1.777362        1.000000        0.00000000        0.00000000        0.00000000
      48         -1.776787        1.000000        0.00000000        0.00000000        0.00000000
      49         -1.776537        1.000000        0.00000000        0.00000000        0.00000000
      50         -1.776457        1.000000        0.00000000        0.00000000        0.00000000
      51         -1.776029        1.000000        0.00000000        0.00000000        0.00000000
      52         -1.774038        1.000000        0.00000000        0.00000000        0.00000000
      53         -1.773797        1.000000        0.00000000        0.00000000        0.00000000
      54         -1.773665        1.000000        0.00000000        0.00000000        0.00000000
      55         -1.772725        1.000000        0.00000000        0.00000000        0.00000000
      56         -1.772546        1.000000        0.00000000        0.00000000        0.00000000
      57         -1.772041        1.000000        0.00000000        0.00000000        0.00000000
      58         -1.771662        1.000000        0.00000000        0.00000000        0.00000000
      59         -1.771364        1.000000        0.00000000        0.00000000        0.00000000
      60         -1.770813        1.000000        0.00000000        0.00000000        0.00000000
      61         -1.770640        1.000000        0.00000000        0.00000000        0.00000000
      62         -1.770449        1.000000        0.00000000        0.00000000        0.00000000
      63         -1.770188        1.000000        0.00000000        0.00000000        0.00000000
      64         -1.770126        1.000000        0.00000000        0.00000000        0.00000000
      65         -1.769991        1.000000        0.00000000        0.00000000        0.00000000
      66         -1.769845        1.000000        0.00000000        0.00000000        0.00000000
      67         -1.769763        1.000000        0.00000000        0.00000000        0.00000000
      68         -1.769661        1.000000        0.00000000        0.00000000        0.00000000
      69         -1.769465        1.000000        0.00000000        0.00000000        0.00000000
      70         -1.769351        1.000000        0.00000000        0.00000000        0.00000000
      71         -1.769328        1.000000        0.00000000        0.00000000        0.00000000
      72         -1.769216        1.000000        0.00000000        0.00000000        0.00000000
      73         -1.769129        1.000000        0.00000000        0.00000000        0.00000000
      74         -1.769070        1.000000        0.00000000        0.00000000        0.00000000
      75         -1.768941        1.000000        0.00000000        0.00000000        0.00000000
      76         -1.768822        1.000000        0.00000000        0.00000000        0.00000000
      77         -1.768707        1.000000        0.00000000        0.00000000        0.00000000
      78         -1.768585        1.000000        0.00000000        0.00000000        0.00000000
      79         -1.768439        1.000000        0.00000000        0.00000000        0.00000000
      80         -1.768329        1.000000        0.00000000        0.00000000        0.00000000
      81         -1.768089        1.000000        0.00000000        0.00000000        0.00000000
      82         -1.767883        1.000000        0.00000000        0.00000000        0.00000000
      83         -1.767662        1.000000        0.00000000        0.00000000        0.00000000
      84         -1.767495        1.000000        0.00000000        0.00000000        0.00000000
      85         -1.767311        1.000000        0.00000000        0.00000000        0.00000000
      86         -1.767266        1.000000        0.00000000        0.00000000        0.00000000
      87         -1.767060        1.000000        0.00000000        0.00000000        0.00000000
      88         -1.767025        1.000000        0.00000000        0.00000000        0.00000000
      89         -1.766872        1.000000        0.00000000        0.00000000        0.00000000
      90         -1.766524        1.000000        0.00000000        0.00000000        0.00000000
      91         -1.766405        1.000000        0.00000000        0.00000000        0.00000000
      92         -1.766254        1.000000        0.00000000        0.00000000        0.00000000
      93         -1.766123        1.000000        0.00000000        0.00000000        0.00000000
      94         -1.765857        1.000000        0.00000000        0.00000000        0.00000000
      95         -1.765515        1.000000        0.00000000        0.00000000        0.00000000
      96         -1.765181        1.000000        0.00000000        0.00000000        0.00000000
      97         -1.765105        1.000000        0.00000000        0.00000000        0.00000000
      98         -1.764967        1.000000        0.00000000        0.00000000        0.00000000
      99         -1.764710        1.000000        0.00000000        0.00000000        0.00000000
     100         -1.764440        1.000000        0.00000000        0.00000000        0.00000000
     101         -1.764248        1.000000        0.00000000        0.00000000        0.00000000
     102         -1.763945        1.000000        0.00000000        0.00000000        0.00000000
     103         -1.763804        1.000000        0.00000000        0.00000000        0.00000000
     104         -1.763351        1.000000        0.00000000        0.00000000        0.00000000
     105         -1.763205        1.000000        0.00000000        0.00000000        0.00000000
     106         -1.763107        1.000000        0.00000000        0.00000000        0.00000000
     107         -1.762531        1.000000        0.00000000        0.00000000        0.00000000
     108         -1.762343        1.000000        0.00000000        0.00000000        0.00000000
     109         -1.761453        1.000000        0.00000000        0.00000000        0.00000000
     110         -1.760969        1.000000        0.00000000        0.00000000        0.00000000
     111         -1.760481        1.000000        0.00000000        0.00000000        0.00000000
     112         -1.760009        1.000000        0.00000000        0.00000000        0.00000000
     113         -1.759531        1.000000        0.00000000        0.00000000        0.00000000
     114         -1.759105        1.000000        0.00000000        0.00000000        0.00000000
     115         -1.758777        1.000000        0.00000000        0.00000000        0.00000000
     116         -1.757462        1.000000        0.00000000        0.00000000        0.00000000
     117         -1.756221        1.000000        0.00000000        0.00000000        0.00000000
     118         -1.755333        1.000000        0.00000000        0.00000000        0.00000000
     119         -1.754385        1.000000        0.00000000        0.00000000        0.00000000
     120         -1.752742        1.000000        0.00000000        0.00000000        0.00000000
     121         -1.131181        1.000000        0.00069585        0.00005331        0.00001516
     122         -1.128658        1.000000        0.00006895        0.00001128        0.00000215
     123         -1.128000        1.000000        0.00009272        0.00004345        0.00000309
     124         -1.126427        1.000000        0.00170627        0.00038609        0.00005242
     125         -1.120469        1.000000        0.00020914        0.00015701        0.00001724
     126         -1.119202        1.000000        0.00019571        0.00003335        0.00000566
     127         -1.117081        1.000000        0.00068899        0.00005385        0.00001870
     128         -1.116156        1.000000        0.00349682        0.00013927        0.00008521
     129         -1.115054        1.000000        0.00062469        0.00001912        0.00002017
     130         -1.111818        1.000000        0.00119773        0.00008190        0.00002356
     131         -1.111610        1.000000        0.00007775        0.00000388        0.00000375
     132         -1.110976        1.000000        0.00400588        0.00073329        0.00009976
     133         -1.109888        1.000000        0.00022812        0.00003130        0.00000893
     134         -1.108601        1.000000        0.01075102        0.00109499        0.00026322
     135         -1.108036        1.000000        0.00735252        0.00028226        0.00015585
     136         -1.107349        1.000000        0.00007064        0.00032960        0.00001257
     137         -1.106797        1.000000        0.02365033        0.00125676        0.00040958
     138         -1.106077        1.000000        0.00181692        0.00012153        0.00002602
     139         -1.104162        1.000000        0.00000683        0.00051260        0.00000336
     140         -1.102892        1.000000        0.00086417        0.00016060        0.00002638
     141         -1.102196        1.000000        0.00066123        0.00005380        0.00002037
     142         -1.101581        1.000000        0.00002003        0.00008999        0.00001998
     143         -1.101215        1.000000        0.00207937        0.00020250        0.00002648
     144         -1.099602        1.000000        0.00002244        0.00005035        0.00001346
     145         -1.098107        1.000000        0.01001651        0.00054816        0.00014099
     146         -1.097450        1.000000        0.00114627        0.00072125        0.00002041
     147         -1.097046        1.000000        0.00051172        0.00174491        0.00006845
     148         -1.095795        1.000000        0.00026482        0.00065064        0.00001745
     149         -1.095192        1.000000        0.00541695        0.00017176        0.00009655
     150         -1.093515        1.000000        0.00677322        0.00051704        0.00010222
     151         -1.093123        1.000000        0.00072619        0.00029884        0.00003488
     152         -1.092614        1.000000        0.00149789        0.00008305        0.00003207
     153         -1.091821        1.000000        0.00509872        0.00023015        0.00004332
     154         -1.090761        1.000000        0.00374841        0.00051550        0.00005113
     155         -1.090597        1.000000        0.00672252        0.00033061        0.00008004
     156         -1.089544        1.000000        0.00080656        0.00005186        0.00000549
     157         -1.088154        1.000000        0.00138026        0.00105607        0.00008085
     158         -1.086960        1.000000        0.00116523        0.00056540        0.00002334
     159         -1.086718        1.000000        0.00305494        0.00041059        0.00004288
     160         -1.085525        1.000000        0.00007661        0.00006812        0.00000919
     161         -1.084219        1.000000        0.00300938        0.00017925        0.00003697
     162         -1.082734        1.000000        0.00054958        0.00035682        0.00003040
     163         -1.082381        1.000000        0.00006180        0.00005785        0.00002846
     164         -1.080807        1.000000        0.00413537        0.00014178        0.00005075
     165         -1.080293        1.000000        0.00293574        0.00011193        0.00003528
     166         -1.079453        1.000000        0.00050828        0.00045136        0.00009617
     167         -1.078246        1.000000        0.01220671        0.00020861        0.00015549
     168         -1.077774        1.000000        0.00204364        0.00013900        0.00002990
     169         -1.077143        1.000000        0.00027356        0.00065266        0.00000828
     170         -1.076426        1.000000        0.00112550        0.00005023        0.00001363
     171         -1.076145        1.000000        0.00204373        0.00003917        0.00002038
     172         -1.074526        1.000000        0.00000197        0.00006969        0.00000661
     173         -1.074368        1.000000        0.00248271        0.00019833        0.00004146
     174         -1.073652        1.000000        0.00055448        0.00004402        0.00001620
     175         -1.072808        1.000000        0.00053446        0.00041372        0.00002950
     176         -1.072152        1.000000        0.00130720        0.00039469        0.00002247
     177         -1.071192        1.000000        0.00065992        0.00004632        0.00002997
     178         -1.070444        1.000000        0.00033568        0.00032353        0.00004455
     179         -1.070141        1.000000        0.00063351        0.00008185        0.00002937
     180         -1.069416        1.000000        0.00083911        0.00030293        0.00002265
     181         -1.069179        1.000000        0.00023358        0.00033227        0.00003513
     182         -1.067610        1.000000        0.00103299        0.00084344        0.00011101
     183         -1.066240        1.000000        0.00330946        0.00015407        0.00001682
     184         -1.065124        1.000000        0.00851490        0.00087578        0.00009054
     185         -1.064565        1.000000        0.00032958        0.00010465        0.00002285
     186         -1.063575        1.000000        0.00079209        0.00004670        0.00002572
     187         -1.062901        1.000000        0.02028551        0.00116432        0.00016678
     188         -1.062274        1.000000        0.00063371        0.00013085        0.00002941
     189         -1.061481        1.000000        0.00420074        0.00008672        0.00002003
     190         -1.061312        1.000000        0.00457629        0.00008151        0.00004723
     191         -1.060592        1.000000        0.00024863        0.00002179        0.00002870
     192         -1.059297        1.000000        0.00011206        0.00006350        0.00000507
     193         -1.058643        1.000000        0.00093257        0.00034164        0.00003906
     194         -1.058262        1.000000        0.00111374        0.00007229        0.00002503
     195         -1.057127        1.000000        0.00375897        0.00008843        0.00001295
     196         -1.056224        1.000000        0.00208806        0.00003356        0.00000940
     197         -1.056050        1.000000        0.00021596        0.00002451        0.00000231
     198         -1.054881        1.000000        0.00005476        0.00003898        0.00000692
     199         -1.054669        1.000000        0.00104108        0.00003660        0.00001481
     200         -1.053605        1.000000        0.00069428        0.00011466        0.00001477
     201         -1.053457        1.000000        0.00040552        0.00017949        0.00000532
     202         -1.052589        1.000000        0.00004674        0.00001784        0.00002178
     203         -1.052089        1.000000        0.00064469        0.00010512        0.00004424
     204         -1.051299        1.000000        0.00087844        0.00004851        0.00002926
     205         -1.050676        1.000000        0.00407859        0.00006630        0.00008716
     206         -1.050307        1.000000        0.00566923        0.00017844        0.00015669
     207         -1.049921        1.000000        0.00075275        0.00003566        0.00001643
     208         -1.049485        1.000000        0.00010882        0.00017064        0.00004353
     209         -1.049126        1.000000        0.00007046        0.00001005        0.00000598
     210         -1.048445        1.000000        0.00003855        0.00000944        0.00001370
     211         -1.048201        1.000000        0.00973427        0.00013846        0.00006081
     212         -1.047911        1.000000        0.00326457        0.00004727        0.00002311
     213         -1.047620        1.000000        0.00069486        0.00007565        0.00000704
     214         -1.046931        1.000000        0.00001419        0.00001770        0.00000339
     215         -1.046733        1.000000        0.00398247        0.00007275        0.00000889
     216         -1.046634        1.000000        0.00000489        0.00005931        0.00000704
     217         -1.045930        1.000000        0.00007883        0.00012114        0.00000161
     218         -1.045069        1.000000        0.00024829        0.00001479        0.00000872
     219         -1.044350        1.000000        0.00002351        0.00001088        0.00000941
     220         -1.043623        1.000000        0.01012325        0.00024409        0.00001505
     221         -1.043421        1.000000        0.00036321        0.00001210        0.00000279
     222         -1.042778        1.000000        0.00113751        0.00002839        0.00001766
     223         -1.042701        1.000000        0.00558431        0.00012506        0.00000767
     224         -1.042424        1.000000        0.00930972        0.00016438        0.00002941
     225         -1.041682        1.000000        0.01856212        0.00032146        0.00001699
     226         -1.041498        1.000000        0.00199077        0.00003426        0.00001407
     227         -1.040837        1.000000        0.01053347        0.00016861        0.00002122
     228         -1.040496        1.000000        0.00394875        0.00005511        0.00001036
     229         -1.040151        1.000000        0.00419694        0.00016224        0.00002295
     230         -1.039686        1.000000        0.00119627        0.00003967        0.00002278
     231         -1.038961        1.000000        0.00012560        0.00003936        0.00001545
     232         -1.038553        1.000000        0.00094092        0.00001225        0.00002144
     233         -1.038476        1.000000        0.00303291        0.00011253        0.00009658
     234         -1.038152        1.000000        0.00005615        0.00002665        0.00002699
     235         -1.038041        1.000000        0.00043976        0.00001038        0.00005883
     236         -1.036855        1.000000        0.00001317        0.00008399        0.00002322
     237         -1.036488        1.000000        0.00188732        0.00002455        0.00003089
     238         -1.036186        1.000000        0.00154368        0.00002079        0.00001147
     239         -1.036068        1.000000        0.02203816        0.00024875        0.00007634
     240         -1.035757        1.000000        0.02660237        0.00033953        0.00003135
     241         -1.035291        1.000000        0.02762139        0.00045507        0.00007945
     242         -1.035048        1.000000        0.03007892        0.00034536        0.00004932
     243         -1.035000        1.000000        0.00002975        0.00004148        0.00011007
     244         -1.034454        1.000000        0.00795847        0.00019957        0.00017005
     245         -1.034219        1.000000        0.00201798        0.00006119        0.00004200
     246         -1.033874        1.000000        0.03834489        0.00043446        0.00005151
     247         -1.033507        1.000000        0.00423553        0.00004582        0.00000982
     248         -1.033219        1.000000        0.03095697        0.00047259        0.00003187
     249         -1.033056        1.000000        0.00908205        0.00013077        0.00001303
     250         -1.032307        1.000000        0.00775462        0.00021885        0.00009309
     251         -1.031324        1.000000        0.00335112        0.00005480        0.00001112
     252         -1.031144        1.000000        0.00348063        0.00004072        0.00001433
     253         -1.030643        1.000000        0.00089956        0.00001754        0.00000110
     254         -1.030284        1.000000        0.00002089        0.00000697        0.00000354
     255         -1.030062        1.000000        0.00002122        0.00000343        0.00000168
     256         -1.029818        1.000000        0.00240036        0.00006107        0.00000631
     257         -1.028552        1.000000        0.00309602        0.00003762        0.00001356
     258         -1.027578        1.000000        0.00006271        0.00000164        0.00000140
     259         -1.027121        1.000000        0.00000158        0.00004150        0.00001153
     260         -1.026880        1.000000        0.00033597        0.00001551        0.00001203
     261         -1.026226        1.000000        0.00034180        0.00001307        0.00000447
     262         -1.025765        1.000000        0.00263193        0.00005391        0.00002233
     263         -1.025299        1.000000        0.00000257        0.00000034        0.00000017
     264         -1.025158        1.000000        0.00048260        0.00001736        0.00000435
     265         -1.025007        1.000000        0.00000131        0.00000618        0.00000556
     266         -1.024422        1.000000        0.00204542        0.00009144        0.00001014
     267         -1.023793        1.000000        0.00004308        0.00000632        0.00000414
     268         -1.023594        1.000000        0.00047898        0.00001073        0.00000503
     269         -1.023069        1.000000        0.00010409        0.00001682        0.00000223
     270         -1.022603        1.000000        0.00046463        0.00001250        0.00000408
     271         -1.022074        1.000000        0.00000551        0.00000182        0.00000059
     272         -1.021695        1.000000        0.00004749        0.00000724        0.00000092
     273         -1.021372        1.000000        0.00000019        0.00000091        0.00000047
     274         -1.021076        1.000000        0.00000185        0.00000066        0.00000017
     275         -1.019492        1.000000        0.00008198        0.00001113        0.00000304
     276         -1.018003        1.000000        0.01917335        0.00066420        0.00037681
     277         -1.016408        1.000000        0.00029854        0.00001986        0.00000650
     278         -1.016278        1.000000        0.00522732        0.00018886        0.00010049
     279         -1.015338        1.000000        0.00016010        0.00000645        0.00000380
     280         -1.013851        1.000000        0.00101063        0.00009396        0.00003828
     281         -1.010223        1.000000        0.00000316        0.00000007        0.00000002
     282         -1.009666        1.000000        0.00003473        0.00000258        0.00000128
     283         -1.007726        1.000000        0.00000228        0.00000238        0.00000019
     284         -1.007300        1.000000        0.00000537        0.00000008        0.00000010
     285         -1.006916        1.000000        0.00005718        0.00000196        0.00000037
     286         -0.889442        1.000000        0.00000000        0.00000001        0.00000000
     287         -0.869424        1.000000        0.00000000        0.00000000        0.00000000
     288         -0.867225        1.000000        0.00000000        0.00000000        0.00000000
     289         -0.864755        1.000000        0.00000000        0.00000000        0.00000000
     290         -0.860947        1.000000        0.00000000        0.00000000        0.00000000
     291         -0.846899        1.000000        0.00000000        0.00000000        0.00000000
     292         -0.844423        1.000000        0.00000000        0.00000000        0.00000000
     293         -0.843782        1.000000        0.00000000        0.00000000        0.00000000
     294         -0.840445        1.000000        0.00000000        0.00000000        0.00000000
     295         -0.821748        1.000000        0.00000000        0.00000000        0.00000000
     296         -0.818927        1.000000        0.00000000        0.00000000        0.00000000
     297         -0.814033        1.000000        0.00000000        0.00000001        0.00000000
     298         -0.808071        1.000000        0.00000000        0.00000000        0.00000000
     299         -0.807076        1.000000        0.00000000        0.00000000        0.00000000
     300         -0.806003        1.000000        0.00000000        0.00000000        0.00000000
     301         -0.805433        1.000000        0.00000000        0.00000000        0.00000000
     302         -0.803208        1.000000        0.00000000        0.00000000        0.00000000
     303         -0.802271        1.000000        0.00000000        0.00000000        0.00000000
     304         -0.801014        1.000000        0.00000000        0.00000000        0.00000000
     305         -0.800419        1.000000        0.00000000        0.00000000        0.00000000
     306         -0.800163        1.000000        0.00000000        0.00000000        0.00000000
     307         -0.798966        1.000000        0.00000000        0.00000000        0.00000000