# Projected DOS for list 16 of 1 atoms, at iteration step i = 0, E(Fermi) =    -0.245567 a.u.
#     MO Eigenvalue [a.u.]      Occupation                 s                 p                 d
       1         -3.122063        1.000000        0.00000000        0.00000000        0.00000000
       2         -3.121278        1.000000        0.00000000        0.00000000        0.00000000
       3         -3.121021        1.000000        0.00000000        0.00000000        0.00000000
       4         -3.120578        1.000000        0.00000000        0.00000000        0.00000000
       5         -3.120271        1.000000        0.00000000        0.00000000        0.00000000
       6         -3.119857        1.000000        0.00000000        0.00000000        0.00000000
       7         -3.119652        1.000000        0.00000001        0.00000001        0.00000000
       8         -3.119624        1.000000        0.00000000        0.00000000        0.00000000
       9         -3.119219        1.000000        0.00000000        0.00000000        0.00000000
      10         -3.119023        1.000000        0.00000000        0.00000000        0.00000000
      11         -3.118913        1.000000        0.00000000        0.00000000        0.00000000
      12         -3.118874        1.000000        0.00000000        0.00000000        0.00000000
      13         -3.118317        1.000000        0.00000000        0.00000001        0.00000000
      14         -3.118249        1.000000        0.00000000        0.00000000        0.00000000
      15         -3.117895        1.000000        0.00000000        0.00000000        0.00000000
      16         -3.117383        1.000000        0.00000000        0.00000000        0.00000000
      17         -3.117165        1.000000        0.00000000        0.00000000        0.00000000
      18         -3.116815        1.000000        0.00000001        0.00000002        0.00000000
      19         -3.116436        1.000000        0.00000000        0.00000000        0.00000000
      20         -3.116021        1.000000        0.00000000        0.00000000        0.00000000
      21         -3.115852        1.000000        0.00000000        0.00000000        0.00000000
      22         -3.115668        1.000000        0.00000000        0.00000000        0.00000000
      23         -3.115368        1.000000        0.00000000        0.00000000        0.00000000
      24         -3.115339        1.000000        0.00000000        0.00000000        0.00000000
      25         -3.115041        1.000000        0.00000000        0.00000000        0.00000000
      26         -3.114366        1.000000        0.00000000        0.00000000        0.00000000
      27         -3.113951        1.000000        0.00000000        0.00000000        0.00000000
      28         -3.113764        1.000000        0.00000000        0.00000000        0.00000000
      29         -3.112534        1.000000        0.00000000        0.00000000        0.00000000
      30         -3.111679        1.000000        0.00000000        0.00000000        0.00000000
      31         -1.784233        1.000000        0.00000000        0.00000000        0.00000000
      32         -1.782870        1.000000        0.00000000        0.00000000        0.00000000
      33         -1.782324        1.000000        0.00000000        0.00000000        0.00000000
      34         -1.782130        1.000000        0.00000000        0.00000000        0.00000000
      35         -1.781736        1.000000        0.00000000        0.00000000        0.00000000
      36         -1.781230        1.000000        0.00000000        0.00000000        0.00000000
      37         -1.780847        1.000000        0.00000000        0.00000000        0.00000000
      38         -1.780487        1.000000        0.00000000        0.00000000        0.00000000
      39         -1.780184        1.000000        0.00000000        0.00000000        0.00000000
      40         -1.779550        1.000000        0.00000000        0.00000000        0.00000000
      41         -1.779259        1.000000        0.00000000        0.00000000        0.00000000
      42         -1.778921        1.000000        0.00000000        0.00000000        0.00000000
      43         -1.778390        1.000000        0.00000000        0.00000000        0.00000000
      44         -1.778140        1.000000        0.00000000        0.00000000        0.00000000
      45         -1.777912        1.000000        0.00000000        0.00000000        0.00000000
      46         -1.777514        1.000000        0.00000000        0.00000000        0.00000000
      47         -1.777362        1.000000        0.00000000        0.00000000        0.00000000
      48         -1.776787        1.000000        0.00000000        0.00000000        0.00000000
      49         -1.776537        1.000000        0.00000000        0.00000000        0.00000000
      50         -1.776457        1.000000        0.00000000        0.00000000        0.00000000
      51         -1.776029        1.000000        0.00000000        0.00000000        0.00000000
      52         -1.774038        1.000000        0.00000000        0.00000000        0.00000000
      53         -1.773797        1.000000        0.00000000        0.00000000        0.00000000
      54         -1.773665        1.000000        0.00000000        0.00000000        0.00000000
      55         -1.772725        1.000000        0.00000000        0.00000000        0.00000000
      56         -1.772546        1.000000        0.00000000        0.00000000        0.00000000
      57         -1.772041        1.000000        0.00000000        0.00000000        0.00000000
      58         -1.771662        1.000000        0.00000000        0.00000000        0.00000000
      59         -1.771364        1.000000        0.00000000        0.00000000        0.00000000
      60         -1.770813        1.000000        0.00000000        0.00000000        0.00000000
      61         -1.770640        1.000000        0.00000000        0.00000000        0.00000000
      62         -1.770449        1.000000        0.00000000        0.00000000        0.00000000
      63         -1.770188        1.000000        0.00000000        0.00000000        0.00000000
      64         -1.770126        1.000000        0.00000000        0.00000000        0.00000000
      65         -1.769991        1.000000        0.00000000        0.00000000        0.00000000
      66         -1.769845        1.000000        0.00000000        0.00000000        0.00000000
      67         -1.769763        1.000000        0.00000000        0.00000000        0.00000000
      68         -1.769661        1.000000        0.00000000        0.00000000        0.00000000
      69         -1.769465        1.000000        0.00000000        0.00000000        0.00000000
      70         -1.769351        1.000000        0.00000000        0.00000000        0.00000000
      71         -1.769328        1.000000        0.00000000        0.00000000        0.00000000
      72         -1.769216        1.000000        0.00000000        0.00000000        0.00000000
      73         -1.769129        1.000000        0.00000000        0.00000000        0.00000000
      74         -1.769070        1.000000        0.00000000        0.00000000        0.00000000
      75         -1.768941        1.000000        0.00000000        0.00000000        0.00000000
      76         -1.768822        1.000000        0.00000000        0.00000000        0.00000000
      77         -1.768707        1.000000        0.00000000        0.00000000        0.00000000
      78         -1.768585        1.000000        0.00000000        0.00000000        0.00000000
      79         -1.768439        1.000000        0.00000000        0.00000000        0.00000000
      80         -1.768329        1.000000        0.00000000        0.00000000        0.00000000
      81         -1.768089        1.000000        0.00000000        0.00000000        0.00000000
      82         -1.767883        1.000000        0.00000000        0.00000000        0.00000000
      83         -1.767662        1.000000        0.00000000        0.00000000        0.00000000
      84         -1.767495        1.000000        0.00000000        0.00000000        0.00000000
      85         -1.767311        1.000000        0.00000000        0.00000000        0.00000000
      86         -1.767266        1.000000        0.00000000        0.00000000        0.00000000
      87         -1.767060        1.000000        0.00000000        0.00000000        0.00000000
      88         -1.767025        1.000000        0.00000000        0.00000000        0.00000000
      89         -1.766872        1.000000        0.00000000        0.00000000        0.00000000
      90         -1.766524        1.000000        0.00000000        0.00000000        0.00000000
      91         -1.766405        1.000000        0.00000000        0.00000000        0.00000000
      92         -1.766254        1.000000        0.00000000        0.00000000        0.00000000
      93         -1.766123        1.000000        0.00000000        0.00000000        0.00000000
      94         -1.765857        1.000000        0.00000000        0.00000000        0.00000000
      95         -1.765515        1.000000        0.00000000        0.00000000        0.00000000
      96         -1.765181        1.000000        0.00000000        0.00000000        0.00000000
      97         -1.765105        1.000000        0.00000000        0.00000000        0.00000000
      98         -1.764967        1.000000        0.00000000        0.00000000        0.00000000
      99         -1.764710        1.000000        0.00000000        0.00000000        0.00000000
     100         -1.764440        1.000000        0.00000000        0.00000000        0.00000000
     101         -1.764248        1.000000        0.00000000        0.00000000        0.00000000
     102         -1.763945        1.000000        0.00000000        0.00000000        0.00000000
     103         -1.763804        1.000000        0.00000000        0.00000000        0.00000000
     104         -1.763351        1.000000        0.00000000        0.00000000        0.00000000
     105         -1.763205        1.000000        0.00000000        0.00000000        0.00000000
     106         -1.763107        1.000000        0.00000000        0.00000000        0.00000000
     107         -1.762531        1.000000        0.00000000        0.00000000        0.00000000
     108         -1.762343        1.000000        0.00000000        0.00000000        0.00000000
     109         -1.761453        1.000000        0.00000000        0.00000000        0.00000000
     110         -1.760969        1.000000        0.00000000        0.00000000        0.00000000
     111         -1.760481        1.000000        0.00000000        0.00000000        0.00000000
     112         -1.760009        1.000000        0.00000000        0.00000000        0.00000000
     113         -1.759531        1.000000        0.00000000        0.00000000        0.00000000
     114         -1.759105        1.000000        0.00000000        0.00000000        0.00000000
     115         -1.758777        1.000000        0.00000000        0.00000000        0.00000000
     116         -1.757462        1.000000        0.00000000        0.00000000        0.00000000
     117         -1.756221        1.000000        0.00000000        0.00000000        0.00000000
     118         -1.755333        1.000000        0.00000000        0.00000000        0.00000000
     119         -1.754385        1.000000        0.00000000        0.00000000        0.00000000
     120         -1.752742        1.000000        0.00000000        0.00000000        0.00000000
     121         -1.131181        1.000000        0.00170340        0.00087264        0.00015569
     122         -1.128658        1.000000        0.00019446        0.00018007        0.00005503
     123         -1.128000        1.000000        0.00000716        0.00014779        0.00001041
     124         -1.126427        1.000000        0.00052351        0.00081737        0.00013467
     125         -1.120469        1.000000        0.00002305        0.00095561        0.00012570
     126         -1.119202        1.000000        0.00068033        0.00071932        0.00009284
     127         -1.117081        1.000000        0.00040859        0.00004643        0.00003537
     128         -1.116156        1.000000        0.00371193        0.00052577        0.00015485
     129         -1.115054        1.000000        0.00051183        0.00091473        0.00019038
     130         -1.111818        1.000000        0.00181645        0.00058415        0.00011994
     131         -1.111610        1.000000        0.00007128        0.00009102        0.00002174
     132         -1.110976        1.000000        0.00051767        0.00175358        0.00038406
     133         -1.109888        1.000000        0.00025938        0.00116558        0.00026052
     134         -1.108601        1.000000        0.00231271        0.00357078        0.00103500
     135         -1.108036        1.000000        0.00682454        0.00073526        0.00021687
     136         -1.107349        1.000000        0.00134491        0.00122919        0.00021556
     137         -1.106797        1.000000        0.01315821        0.00220190        0.00061299
     138         -1.106077        1.000000        0.00218951        0.00040972        0.00013555
     139         -1.104162        1.000000        0.00127233        0.00217684        0.00053892
     140         -1.102892        1.000000        0.00183071        0.00199502        0.00056687
     141         -1.102196        1.000000        0.00028458        0.00060673        0.00016720
     142         -1.101581        1.000000        0.00018277        0.00223785        0.00037163
     143         -1.101215        1.000000        0.00283038        0.00053725        0.00014767
     144         -1.099602        1.000000        0.00008178        0.00118209        0.00030297
     145         -1.098107        1.000000        0.00325138        0.00191375        0.00039535
     146         -1.097450        1.000000        0.00425148        0.00110311        0.00027026
     147         -1.097046        1.000000        0.00735359        0.00292185        0.00065608
     148         -1.095795        1.000000        0.00263515        0.00255834        0.00048975
     149         -1.095192        1.000000        0.00349635        0.00360425        0.00112903
     150         -1.093515        1.000000        0.00720507        0.00205845        0.00064546
     151         -1.093123        1.000000        0.00004468        0.00176853        0.00040381
     152         -1.092614        1.000000        0.00081270        0.00381929        0.00113354
     153         -1.091821        1.000000        0.00260575        0.00117676        0.00028197
     154         -1.090761        1.000000        0.00517771        0.00038253        0.00015978
     155         -1.090597        1.000000        0.00506125        0.00098804        0.00022069
     156         -1.089544        1.000000        0.00059810        0.00064235        0.00012886
     157         -1.088154        1.000000        0.00589874        0.00233121        0.00053189
     158         -1.086960        1.000000        0.00324298        0.00090540        0.00033387
     159         -1.086718        1.000000        0.00001762        0.00173070        0.00048357
     160         -1.085525        1.000000        0.00006888        0.00049755        0.00019185
     161         -1.084219        1.000000        0.00027280        0.00106280        0.00029595
     162         -1.082734        1.000000        0.00034009        0.00111322        0.00038729
     163         -1.082381        1.000000        0.00009682        0.00183547        0.00071855
     164         -1.080807        1.000000        0.00202952        0.00154476        0.00040606
     165         -1.080293        1.000000        0.00136175        0.00261230        0.00114082
     166         -1.079453        1.000000        0.00229808        0.00080735        0.00016440
     167         -1.078246        1.000000        0.00293798        0.00391352        0.00160131
     168         -1.077774        1.000000        0.00121309        0.00052277        0.00020452
     169         -1.077143        1.000000        0.00185084        0.00331328        0.00122101
     170         -1.076426        1.000000        0.00021383        0.00139520        0.00037232
     171         -1.076145        1.000000        0.00050404        0.00068315        0.00033507
     172         -1.074526        1.000000        0.00014572        0.00135518        0.00044732
     173         -1.074368        1.000000        0.00162325        0.00374416        0.00140349
     174         -1.073652        1.000000        0.00000432        0.00097366        0.00031773
     175         -1.072808        1.000000        0.00167053        0.00274970        0.00074253
     176         -1.072152        1.000000        0.00024911        0.00276404        0.00060550
     177         -1.071192        1.000000        0.00041582        0.00415434        0.00133808
     178         -1.070444        1.000000        0.00131108        0.00213300        0.00062168
     179         -1.070141        1.000000        0.00001358        0.00177109        0.00055287
     180         -1.069416        1.000000        0.00026169        0.00169611        0.00047641
     181         -1.069179        1.000000        0.00125911        0.00086031        0.00022650
     182         -1.067610        1.000000        0.00407166        0.00132398        0.00030344
     183         -1.066240        1.000000        0.00031535        0.00287783        0.00082566
     184         -1.065124        1.000000        0.00557655        0.00319101        0.00080247
     185         -1.064565        1.000000        0.00018286        0.00200564        0.00044546
     186         -1.063575        1.000000        0.00002944        0.00035097        0.00008569
     187         -1.062901        1.000000        0.00876558        0.00234607        0.00116381
     188         -1.062274        1.000000        0.00028039        0.00115844        0.00037637
     189         -1.061481        1.000000        0.00061810        0.00098120        0.00046958
     190         -1.061312        1.000000        0.00067281        0.00060613        0.00029833
     191         -1.060592        1.000000        0.00001641        0.00016028        0.00007045
     192         -1.059297        1.000000        0.00018426        0.00030465        0.00010843
     193         -1.058643        1.000000        0.00025382        0.00225126        0.00095478
     194         -1.058262        1.000000        0.00034107        0.00296427        0.00117468
     195         -1.057127        1.000000        0.00044865        0.00158303        0.00053877
     196         -1.056224        1.000000        0.00017327        0.00107977        0.00036288
     197         -1.056050        1.000000        0.00000294        0.00106310        0.00040538
     198         -1.054881        1.000000        0.00015569        0.00033899        0.00010218
     199         -1.054669        1.000000        0.00000064        0.00261639        0.00083339
     200         -1.053605        1.000000        0.00009524        0.00081344        0.00020828
     201         -1.053457        1.000000        0.00022614        0.00274304        0.00079763
     202         -1.052589        1.000000        0.00006608        0.00024993        0.00004380
     203         -1.052089        1.000000        0.00058438        0.00201835        0.00081144
     204         -1.051299        1.000000        0.00007830        0.00462923        0.00192362
     205         -1.050676        1.000000        0.00015636        0.00502399        0.00178759
     206         -1.050307        1.000000        0.00010423        0.00173066        0.00071246
     207         -1.049921        1.000000        0.00017276        0.00047342        0.00021833
     208         -1.049485        1.000000        0.00015246        0.00544026        0.00192303
     209         -1.049126        1.000000        0.00000523        0.00041474        0.00013237
     210         -1.048445        1.000000        0.00004122        0.00146785        0.00058015
     211         -1.048201        1.000000        0.00036627        0.00385934        0.00121677
     212         -1.047911        1.000000        0.00005732        0.00213568        0.00082058
     213         -1.047620        1.000000        0.00004722        0.00223073        0.00102379
     214         -1.046931        1.000000        0.00004532        0.00033324        0.00015237
     215         -1.046733        1.000000        0.00015926        0.00194660        0.00074398
     216         -1.046634        1.000000        0.00006649        0.00000855        0.00000882
     217         -1.045930        1.000000        0.00024037        0.00034621        0.00019282
     218         -1.045069        1.000000        0.00006297        0.00058468        0.00030455
     219         -1.044350        1.000000        0.00000471        0.00020866        0.00007276
     220         -1.043623        1.000000        0.00004866        0.00505770        0.00202965
     221         -1.043421        1.000000        0.00001115        0.00035243        0.00015161
     222         -1.042778        1.000000        0.00003076        0.00290866        0.00127431
     223         -1.042701        1.000000        0.00001766        0.00275588        0.00101882
     224         -1.042424        1.000000        0.00000021        0.00444702        0.00204232
     225         -1.041682        1.000000        0.00001370        0.01150694        0.00406982
     226         -1.041498        1.000000        0.00000392        0.00074458        0.00037047
     227         -1.040837        1.000000        0.00001596        0.01033646        0.00418983
     228         -1.040496        1.000000        0.00002853        0.00149935        0.00054616
     229         -1.040151        1.000000        0.00002379        0.00234134        0.00101459
     230         -1.039686        1.000000        0.00000842        0.00157189        0.00077121
     231         -1.038961        1.000000        0.00003007        0.00158694        0.00074736
     232         -1.038553        1.000000        0.00000008        0.00223201        0.00098134
     233         -1.038476        1.000000        0.00000439        0.00586799        0.00279110
     234         -1.038152        1.000000        0.00000803        0.00004082        0.00003375
     235         -1.038041        1.000000        0.00001326        0.00204249        0.00103932
     236         -1.036855        1.000000        0.00004721        0.00380559        0.00175273
     237         -1.036488        1.000000        0.00003187        0.00344652        0.00176778
     238         -1.036186        1.000000        0.00000630        0.00192848        0.00065660
     239         -1.036068        1.000000        0.00008886        0.01270506        0.00571515
     240         -1.035757        1.000000        0.00000759        0.01230288        0.00472964
     241         -1.035291        1.000000        0.00001425        0.02915188        0.01140219
     242         -1.035048        1.000000        0.00000284        0.01154689        0.00483537
     243         -1.035000        1.000000        0.00001893        0.01505422        0.00721210
     244         -1.034454        1.000000        0.00009474        0.02755492        0.01354161
     245         -1.034219        1.000000        0.00000712        0.00925135        0.00404098
     246         -1.033874        1.000000        0.00007653        0.01682520        0.00759107
     247         -1.033507        1.000000        0.00000804        0.00230482        0.00098326
     248         -1.033219        1.000000        0.00010031        0.01391625        0.00549104
     249         -1.033056        1.000000        0.00004173        0.00498831        0.00202363
     250         -1.032307        1.000000        0.00002325        0.00317398        0.00127928
     251         -1.031324        1.000000        0.00004405        0.00181808        0.00111052
     252         -1.031144        1.000000        0.00001286        0.00287457        0.00113607
     253         -1.030643        1.000000        0.00001259        0.00046159        0.00021094
     254         -1.030284        1.000000        0.00000613        0.00036619        0.00013140
     255         -1.030062        1.000000        0.00000299        0.00012366        0.00004775
     256         -1.029818        1.000000        0.00000769        0.00094685        0.00036140
     257         -1.028552        1.000000        0.00003292        0.00294616        0.00123115
     258         -1.027578        1.000000        0.00000378        0.00015707        0.00009710
     259         -1.027121        1.000000        0.00000292        0.00022546        0.00008659
     260         -1.026880        1.000000        0.00002181        0.00085520        0.00034496
     261         -1.026226        1.000000        0.00000713        0.00094555        0.00039564
     262         -1.025765        1.000000        0.00005257        0.00453922        0.00197715
     263         -1.025299        1.000000        0.00000010        0.00000263        0.00000070
     264         -1.025158        1.000000        0.00000690        0.00070790        0.00028165
     265         -1.025007        1.000000        0.00000277        0.00051084        0.00023963
     266         -1.024422        1.000000        0.00015227        0.00405320        0.00199720
     267         -1.023793        1.000000        0.00001235        0.00031811        0.00013268
     268         -1.023594        1.000000        0.00000988        0.00060146        0.00026430
     269         -1.023069        1.000000        0.00000889        0.00044484        0.00026103
     270         -1.022603        1.000000        0.00000030        0.00020380        0.00008626
     271         -1.022074        1.000000        0.00001011        0.00005885        0.00002609
     272         -1.021695        1.000000        0.00000574        0.00004027        0.00002653
     273         -1.021372        1.000000        0.00000110        0.00006359        0.00002605
     274         -1.021076        1.000000        0.00000035        0.00000893        0.00000399
     275         -1.019492        1.000000        0.00001345        0.00037580        0.00015953
     276         -1.018003        1.000000        0.00131013        0.06240943        0.02708262
     277         -1.016408        1.000000        0.00003693        0.00107372        0.00047431
     278         -1.016278        1.000000        0.00039432        0.01634293        0.00727139
     279         -1.015338        1.000000        0.00001592        0.00059285        0.00026249
     280         -1.013851        1.000000        0.00015921        0.00507554        0.00241486
     281         -1.010223        1.000000        0.00000005        0.00000475        0.00000208
     282         -1.009666        1.000000        0.00000384        0.00020747        0.00008628
     283         -1.007726        1.000000        0.00000043        0.00000080        0.00000063
     284         -1.007300        1.000000        0.00000059        0.00001177        0.00000529
     285         -1.006916        1.000000        0.00000313        0.00008561        0.00003413
     286         -0.889442        1.000000        0.00000004        0.00000007        0.00000000
     287         -0.869424        1.000000        0.00000000        0.00000000        0.00000000
     288         -0.867225        1.000000        0.00000001        0.00000002        0.00000000
     289         -0.864755        1.000000        0.00000001        0.00000002        0.00000000
     290         -0.860947        1.000000        0.00000000        0.00000000        0.00000000
     291         -0.846899        1.000000        0.00000000        0.00000000        0.00000000
     292         -0.844423        1.000000        0.00000000        0.00000000        0.00000000
     293         -0.843782        1.000000        0.00000000        0.00000001        0.00000000
     294         -0.840445        1.000000        0.00000000        0.00000000        0.00000000
     295         -0.821748        1.000000        0.00000000        0.00000000        0.00000000
     296         -0.818927        1.000000        0.00000000        0.00000000        0.00000000
     297         -0.814033        1.000000        0.00000003        0.00000007        0.00000000
     298         -0.808071        1.000000        0.00000000        0.00000001        0.00000000
     299         -0.807076        1.000000        0.00000000        0.00000000        0.00000000
     300         -0.806003        1.000000        0.00000000        0.00000000        0.00000000
     301         -0.805433        1.000000        0.00000000        0.00000000        0.00000000
     302         -0.803208        1.000000        0.00000000        0.00000001        0.00000000
     303         -0.802271        1.000000        0.00000001        0.00000002        0.00000000
     304         -0.801014        1.000000        0.00000000        0.00000000        0.00000000
     305         -0.800419        1.000000        0.00000000        0.00000000        0.00000000
     306         -0.800163        1.000000        0.00000000        0.00000000        0.00000000
     307         -0.798966        1.000000        0.00000000        0.00000000        0.00000000