# Projected DOS for list 131 of 1 atoms, at iteration step i = 0, E(Fermi) =    -0.237583 a.u.
#     MO Eigenvalue [a.u.]      Occupation                 s                 p                 d
       1         -3.115895        1.000000        0.00000000        0.00000000        0.00000000
       2         -3.112717        1.000000        0.00000000        0.00000000        0.00000000
       3         -3.112103        1.000000        0.00000000        0.00000000        0.00000000
       4         -3.111180        1.000000        0.00000000        0.00000000        0.00000000
       5         -3.110810        1.000000        0.00000000        0.00000000        0.00000000
       6         -3.110575        1.000000        0.00000000        0.00000000        0.00000000
       7         -3.110067        1.000000        0.00000000        0.00000000        0.00000000
       8         -3.109817        1.000000        0.00000000        0.00000000        0.00000000
       9         -3.109660        1.000000        0.00000000        0.00000000        0.00000000
      10         -3.108831        1.000000        0.00000000        0.00000000        0.00000000
      11         -3.108678        1.000000        0.00000000        0.00000000        0.00000000
      12         -3.108578        1.000000        0.00000000        0.00000000        0.00000000
      13         -3.108350        1.000000        0.00000000        0.00000000        0.00000000
      14         -3.108163        1.000000        0.00000000        0.00000000        0.00000000
      15         -3.107948        1.000000        0.00000000        0.00000000        0.00000000
      16         -3.107865        1.000000        0.00000000        0.00000000        0.00000000
      17         -3.107703        1.000000        0.00000000        0.00000000        0.00000000
      18         -3.107683        1.000000        0.00000000        0.00000000        0.00000000
      19         -3.107641        1.000000        0.00000000        0.00000000        0.00000000
      20         -3.107604        1.000000        0.00000000        0.00000000        0.00000000
      21         -3.107402        1.000000        0.00000000        0.00000000        0.00000000
      22         -3.107115        1.000000        0.00000000        0.00000000        0.00000000
      23         -3.107013        1.000000        0.00000000        0.00000000        0.00000000
      24         -3.106750        1.000000        0.00000000        0.00000000        0.00000000
      25         -3.106619        1.000000        0.00000000        0.00000000        0.00000000
      26         -3.106567        1.000000        0.00000000        0.00000000        0.00000000
      27         -3.106546        1.000000        0.00000000        0.00000000        0.00000000
      28         -3.106258        1.000000        0.00000000        0.00000000        0.00000000
      29         -3.106103        1.000000        0.00000000        0.00000000        0.00000000
      30         -3.104674        1.000000        0.00000000        0.00000000        0.00000000
      31         -1.775522        1.000000        0.00000000        0.00000000        0.00000000
      32         -1.773964        1.000000        0.00000000        0.00000000        0.00000000
      33         -1.773454        1.000000        0.00000000        0.00000000        0.00000000
      34         -1.773008        1.000000        0.00000000        0.00000000        0.00000000
      35         -1.772581        1.000000        0.00000000        0.00000000        0.00000000
      36         -1.772213        1.000000        0.00000000        0.00000000        0.00000000
      37         -1.771852        1.000000        0.00000000        0.00000000        0.00000000
      38         -1.771444        1.000000        0.00000000        0.00000000        0.00000000
      39         -1.771233        1.000000        0.00000000        0.00000000        0.00000000
      40         -1.770977        1.000000        0.00000000        0.00000000        0.00000000
      41         -1.770760        1.000000        0.00000000        0.00000000        0.00000000
      42         -1.770111        1.000000        0.00000000        0.00000000        0.00000000
      43         -1.770034        1.000000        0.00000000        0.00000000        0.00000000
      44         -1.769495        1.000000        0.00000000        0.00000000        0.00000000
      45         -1.769421        1.000000        0.00000000        0.00000000        0.00000000
      46         -1.769063        1.000000        0.00000000        0.00000000        0.00000000
      47         -1.768532        1.000000        0.00000000        0.00000000        0.00000000
      48         -1.768412        1.000000        0.00000000        0.00000000        0.00000000
      49         -1.767811        1.000000        0.00000000        0.00000000        0.00000000
      50         -1.767614        1.000000        0.00000000        0.00000000        0.00000000
      51         -1.767477        1.000000        0.00000000        0.00000000        0.00000000
      52         -1.765531        1.000000        0.00000000        0.00000000        0.00000000
      53         -1.765088        1.000000        0.00000000        0.00000000        0.00000000
      54         -1.764557        1.000000        0.00000000        0.00000000        0.00000000
      55         -1.763772        1.000000        0.00000000        0.00000000        0.00000000
      56         -1.763328        1.000000        0.00000000        0.00000000        0.00000000
      57         -1.762925        1.000000        0.00000000        0.00000000        0.00000000
      58         -1.762506        1.000000        0.00000000        0.00000000        0.00000000
      59         -1.762119        1.000000        0.00000000        0.00000000        0.00000000
      60         -1.762053        1.000000        0.00000000        0.00000000        0.00000000
      61         -1.761895        1.000000        0.00000000        0.00000000        0.00000000
      62         -1.761602        1.000000        0.00000000        0.00000000        0.00000000
      63         -1.761509        1.000000        0.00000000        0.00000000        0.00000000
      64         -1.761377        1.000000        0.00000000        0.00000000        0.00000000
      65         -1.761171        1.000000        0.00000000        0.00000000        0.00000000
      66         -1.760998        1.000000        0.00000000        0.00000000        0.00000000
      67         -1.760877        1.000000        0.00000000        0.00000000        0.00000000
      68         -1.760806        1.000000        0.00000000        0.00000000        0.00000000
      69         -1.760684        1.000000        0.00000000        0.00000000        0.00000000
      70         -1.760645        1.000000        0.00000000        0.00000000        0.00000000
      71         -1.760442        1.000000        0.00000000        0.00000000        0.00000000
      72         -1.760098        1.000000        0.00000000        0.00000000        0.00000000
      73         -1.759962        1.000000        0.00000000        0.00000000        0.00000000
      74         -1.759824        1.000000        0.00000000        0.00000000        0.00000000
      75         -1.759787        1.000000        0.00000000        0.00000000        0.00000000
      76         -1.759638        1.000000        0.00000000        0.00000000        0.00000000
      77         -1.759601        1.000000        0.00000000        0.00000000        0.00000000
      78         -1.759512        1.000000        0.00000000        0.00000000        0.00000000
      79         -1.759406        1.000000        0.00000000        0.00000000        0.00000000
      80         -1.759287        1.000000        0.00000000        0.00000000        0.00000000
      81         -1.759176        1.000000        0.00000000        0.00000000        0.00000000
      82         -1.758872        1.000000        0.00000000        0.00000000        0.00000000
      83         -1.758781        1.000000        0.00000000        0.00000000        0.00000000
      84         -1.758726        1.000000        0.00000000        0.00000000        0.00000000
      85         -1.758559        1.000000        0.00000000        0.00000000        0.00000000
      86         -1.758378        1.000000        0.00000000        0.00000000        0.00000000
      87         -1.758294        1.000000        0.00000000        0.00000000        0.00000000
      88         -1.758087        1.000000        0.00000000        0.00000000        0.00000000
      89         -1.757987        1.000000        0.00000000        0.00000000        0.00000000
      90         -1.757734        1.000000        0.00000000        0.00000000        0.00000000
      91         -1.757649        1.000000        0.00000000        0.00000000        0.00000000
      92         -1.757529        1.000000        0.00000000        0.00000000        0.00000000
      93         -1.757404        1.000000        0.00000000        0.00000000        0.00000000
      94         -1.757324        1.000000        0.00000000        0.00000000        0.00000000
      95         -1.757187        1.000000        0.00000000        0.00000000        0.00000000
      96         -1.757137        1.000000        0.00000000        0.00000000        0.00000000
      97         -1.756770        1.000000        0.00000000        0.00000000        0.00000000
      98         -1.756598        1.000000        0.00000000        0.00000000        0.00000000
      99         -1.756513        1.000000        0.00000000        0.00000000        0.00000000
     100         -1.756186        1.000000        0.00000000        0.00000000        0.00000000
     101         -1.755847        1.000000        0.00000000        0.00000000        0.00000000
     102         -1.755716        1.000000        0.00000000        0.00000000        0.00000000
     103         -1.755306        1.000000        0.00000000        0.00000000        0.00000000
     104         -1.755052        1.000000        0.00000000        0.00000000        0.00000000
     105         -1.754765        1.000000        0.00000000        0.00000000        0.00000000
     106         -1.754094        1.000000        0.00000000        0.00000000        0.00000000
     107         -1.753681        1.000000        0.00000000        0.00000000        0.00000000
     108         -1.753548        1.000000        0.00000000        0.00000000        0.00000000
     109         -1.753256        1.000000        0.00000000        0.00000000        0.00000000
     110         -1.752675        1.000000        0.00000000        0.00000000        0.00000000
     111         -1.752502        1.000000        0.00000000        0.00000000        0.00000000
     112         -1.752253        1.000000        0.00000000        0.00000000        0.00000000
     113         -1.751643        1.000000        0.00000000        0.00000000        0.00000000
     114         -1.751317        1.000000        0.00000000        0.00000000        0.00000000
     115         -1.749193        1.000000        0.00000000        0.00000000        0.00000000
     116         -1.748137        1.000000        0.00000000        0.00000000        0.00000000
     117         -1.747283        1.000000        0.00000000        0.00000000        0.00000000
     118         -1.745962        1.000000        0.00000000        0.00000000        0.00000000
     119         -1.745880        1.000000        0.00000000        0.00000000        0.00000000
     120         -1.744143        1.000000        0.00000000        0.00000000        0.00000000
     121         -1.145318        1.000000        0.00011994        0.00004250        0.00000991
     122         -1.141162        1.000000        0.00005183        0.00003297        0.00000540
     123         -1.135518        1.000000        0.00000372        0.00001528        0.00000075
     124         -1.134356        1.000000        0.00010824        0.00000863        0.00000517
     125         -1.132797        1.000000        0.00037431        0.00008195        0.00002078
     126         -1.131675        1.000000        0.00010955        0.00000654        0.00000550
     127         -1.130657        1.000000        0.00174863        0.00052833        0.00013024
     128         -1.129329        1.000000        0.00004757        0.00009719        0.00001005
     129         -1.127805        1.000000        0.00016750        0.00006491        0.00001104
     130         -1.126970        1.000000        0.00004704        0.00000753        0.00000242
     131         -1.125100        1.000000        0.00039707        0.00002597        0.00001564
     132         -1.124640        1.000000        0.00006094        0.00004594        0.00000420
     133         -1.122028        1.000000        0.00003922        0.00002524        0.00000467
     134         -1.120887        1.000000        0.00006245        0.00001757        0.00000078
     135         -1.119308        1.000000        0.00048086        0.00002756        0.00001152
     136         -1.118408        1.000000        0.00072173        0.00005673        0.00001413
     137         -1.117769        1.000000        0.00000856        0.00042923        0.00001099
     138         -1.116570        1.000000        0.00012144        0.00003486        0.00000513
     139         -1.115096        1.000000        0.00005260        0.00029333        0.00000723
     140         -1.114402        1.000000        0.00000671        0.00001906        0.00000310
     141         -1.114039        1.000000        0.00175738        0.00039866        0.00007194
     142         -1.112381        1.000000        0.00072247        0.00005206        0.00001560
     143         -1.111588        1.000000        0.00021865        0.00002935        0.00001958
     144         -1.111356        1.000000        0.00201380        0.00016456        0.00005470
     145         -1.110913        1.000000        0.00025488        0.00006440        0.00000841
     146         -1.109631        1.000000        0.00000144        0.00007734        0.00000512
     147         -1.107338        1.000000        0.00000170        0.00013352        0.00000319
     148         -1.107163        1.000000        0.00291228        0.00012753        0.00008704
     149         -1.106911        1.000000        0.00028589        0.00104238        0.00005233
     150         -1.105904        1.000000        0.00000482        0.00043764        0.00003220
     151         -1.104513        1.000000        0.01103417        0.00106717        0.00032388
     152         -1.103753        1.000000        0.00613169        0.00031876        0.00016007
     153         -1.103233        1.000000        0.00178531        0.00006498        0.00007337
     154         -1.101116        1.000000        0.00161873        0.00017140        0.00005823
     155         -1.099878        1.000000        0.00046473        0.00008224        0.00000907
     156         -1.099527        1.000000        0.00561205        0.00023672        0.00011182
     157         -1.099360        1.000000        0.00111511        0.00005610        0.00003244
     158         -1.097449        1.000000        0.00065462        0.00064319        0.00003317
     159         -1.097246        1.000000        0.00017689        0.00001790        0.00000246
     160         -1.096336        1.000000        0.00027525        0.00001384        0.00001968
     161         -1.095776        1.000000        0.00007724        0.00004438        0.00003764
     162         -1.094258        1.000000        0.00000259        0.00009868        0.00000340
     163         -1.093701        1.000000        0.00381107        0.00042182        0.00009290
     164         -1.093107        1.000000        0.00298913        0.00009379        0.00011444
     165         -1.091600        1.000000        0.00268587        0.00005780        0.00008686
     166         -1.090890        1.000000        0.00000201        0.00079064        0.00001342
     167         -1.090283        1.000000        0.00062095        0.00014758        0.00003108
     168         -1.089378        1.000000        0.00122408        0.00011495        0.00001335
     169         -1.088506        1.000000        0.00276052        0.00031372        0.00005724
     170         -1.086931        1.000000        0.00103247        0.00021725        0.00002209
     171         -1.086367        1.000000        0.00001254        0.00007778        0.00001043
     172         -1.085327        1.000000        0.00035410        0.00003678        0.00002156
     173         -1.084766        1.000000        0.00006660        0.00023524        0.00000886
     174         -1.083961        1.000000        0.01079502        0.00160473        0.00027825
     175         -1.082920        1.000000        0.00254667        0.00034681        0.00005063
     176         -1.081700        1.000000        0.00754015        0.00033945        0.00011880
     177         -1.081031        1.000000        0.00188664        0.00034544        0.00002898
     178         -1.080558        1.000000        0.00060109        0.00201454        0.00004472
     179         -1.080415        1.000000        0.00000936        0.00003548        0.00001330
     180         -1.080047        1.000000        0.00034001        0.00039994        0.00001431
     181         -1.077309        1.000000        0.00359686        0.00016043        0.00005660
     182         -1.076601        1.000000        0.00122192        0.00005788        0.00001359
     183         -1.076342        1.000000        0.00201241        0.00039502        0.00003604
     184         -1.076154        1.000000        0.00026693        0.00003911        0.00000377
     185         -1.075469        1.000000        0.00080089        0.00013475        0.00003572
     186         -1.074904        1.000000        0.00017771        0.00051169        0.00003578
     187         -1.074160        1.000000        0.00002624        0.00004700        0.00000247
     188         -1.073364        1.000000        0.00013567        0.00001764        0.00000091
     189         -1.071841        1.000000        0.00024579        0.00008493        0.00000479
     190         -1.071436        1.000000        0.00002002        0.00008787        0.00000828
     191         -1.070358        1.000000        0.00004968        0.00000513        0.00000402
     192         -1.070160        1.000000        0.00046488        0.00010707        0.00000949
     193         -1.069551        1.000000        0.00012598        0.00003248        0.00000777
     194         -1.069042        1.000000        0.00334509        0.00014432        0.00002836
     195         -1.068018        1.000000        0.00016332        0.00006533        0.00000814
     196         -1.067683        1.000000        0.00080148        0.00057363        0.00004080
     197         -1.067094        1.000000        0.00693565        0.00102632        0.00009740
     198         -1.066200        1.000000        0.00138761        0.00041943        0.00006356
     199         -1.065105        1.000000        0.00039115        0.00002221        0.00000391
     200         -1.064600        1.000000        0.00048869        0.00003311        0.00000596
     201         -1.063825        1.000000        0.00003276        0.00001866        0.00000390
     202         -1.063672        1.000000        0.00000521        0.00000716        0.00000465
     203         -1.062915        1.000000        0.00023563        0.00004016        0.00000855
     204         -1.062259        1.000000        0.00000368        0.00001042        0.00000237
     205         -1.061986        1.000000        0.00001561        0.00001119        0.00000031
     206         -1.060822        1.000000        0.00006689        0.00002481        0.00000300
     207         -1.060230        1.000000        0.00000007        0.00001149        0.00000116
     208         -1.059971        1.000000        0.00018541        0.00000481        0.00000291
     209         -1.059399        1.000000        0.00000101        0.00002403        0.00000691
     210         -1.058798        1.000000        0.00051302        0.00006290        0.00001049
     211         -1.058498        1.000000        0.00102260        0.00007627        0.00002461
     212         -1.057049        1.000000        0.00036782        0.00001968        0.00000772
     213         -1.056896        1.000000        0.00042682        0.00003099        0.00002239
     214         -1.056403        1.000000        0.00070196        0.00004043        0.00001901
     215         -1.056079        1.000000        0.00052551        0.00004932        0.00004711
     216         -1.055624        1.000000        0.00009025        0.00000778        0.00000344
     217         -1.055288        1.000000        0.00171675        0.00034415        0.00008219
     218         -1.054828        1.000000        0.00007271        0.00007763        0.00003417
     219         -1.054413        1.000000        0.00017855        0.00000721        0.00000275
     220         -1.053990        1.000000        0.00029828        0.00002698        0.00000510
     221         -1.053598        1.000000        0.00017138        0.00004206        0.00002970
     222         -1.053387        1.000000        0.00005674        0.00000843        0.00000250
     223         -1.052953        1.000000        0.00000126        0.00000989        0.00001103
     224         -1.052779        1.000000        0.00039225        0.00001102        0.00000431
     225         -1.052376        1.000000        0.00001451        0.00000959        0.00001764
     226         -1.052297        1.000000        0.00007621        0.00001445        0.00000932
     227         -1.051819        1.000000        0.00045708        0.00001802        0.00001582
     228         -1.051536        1.000000        0.00001964        0.00000211        0.00000230
     229         -1.051232        1.000000        0.00040240        0.00002121        0.00000818
     230         -1.050581        1.000000        0.00600063        0.00010304        0.00004117
     231         -1.050140        1.000000        0.00162870        0.00004665        0.00001271
     232         -1.049834        1.000000        0.00026677        0.00006475        0.00001206
     233         -1.049588        1.000000        0.00078804        0.00005408        0.00002966
     234         -1.049506        1.000000        0.00291467        0.00036294        0.00014783
     235         -1.048565        1.000000        0.00095596        0.00007214        0.00003719
     236         -1.048103        1.000000        0.00109189        0.00013366        0.00012559
     237         -1.048023        1.000000        0.00202694        0.00009667        0.00003668
     238         -1.047651        1.000000        0.00076191        0.00004468        0.00001576
     239         -1.047305        1.000000        0.00003557        0.00000640        0.00000690
     240         -1.046707        1.000000        0.00000707        0.00000394        0.00001155
     241         -1.046592        1.000000        0.00029543        0.00001238        0.00000701
     242         -1.046281        1.000000        0.00056310        0.00001979        0.00000960
     243         -1.045974        1.000000        0.00000936        0.00000115        0.00000072
     244         -1.045866        1.000000        0.00281264        0.00016962        0.00003027
     245         -1.045771        1.000000        0.00219953        0.00005638        0.00001427
     246         -1.045301        1.000000        0.00003508        0.00000321        0.00000192
     247         -1.045020        1.000000        0.00065463        0.00001396        0.00000251
     248         -1.043956        1.000000        0.00090178        0.00005085        0.00002312
     249         -1.043818        1.000000        0.00004702        0.00001314        0.00002273
     250         -1.043244        1.000000        0.00269453        0.00009652        0.00003550
     251         -1.043119        1.000000        0.00028224        0.00001014        0.00000818
     252         -1.042993        1.000000        0.00533551        0.00013305        0.00006228
     253         -1.042515        1.000000        0.00074519        0.00002126        0.00000743
     254         -1.041302        1.000000        0.00057762        0.00001143        0.00000223
     255         -1.041116        1.000000        0.00041750        0.00004223        0.00003669
     256         -1.040594        1.000000        0.00016208        0.00001347        0.00000243
     257         -1.040094        1.000000        0.00015319        0.00004022        0.00004174
     258         -1.039599        1.000000        0.00020735        0.00002620        0.00004018
     259         -1.039408        1.000000        0.00156629        0.00003330        0.00003861
     260         -1.038970        1.000000        0.00608134        0.00016016        0.00016587
     261         -1.038561        1.000000        0.00111234        0.00003746        0.00001811
     262         -1.038022        1.000000        0.00474658        0.00021503        0.00011027
     263         -1.037841        1.000000        0.00000070        0.00000064        0.00000012
     264         -1.036991        1.000000        0.00618480        0.00020662        0.00008253
     265         -1.036854        1.000000        0.00223587        0.00007379        0.00002845
     266         -1.035910        1.000000        0.00049731        0.00000582        0.00000452
     267         -1.035115        1.000000        0.00258103        0.00011136        0.00006285
     268         -1.034275        1.000000        0.00252057        0.00005210        0.00002657
     269         -1.033697        1.000000        0.01929005        0.00032935        0.00006806
     270         -1.033444        1.000000        0.00260338        0.00004077        0.00000542
     271         -1.033385        1.000000        0.00248702        0.00003952        0.00000613
     272         -1.033262        1.000000        0.00001018        0.00003914        0.00001620
     273         -1.032346        1.000000        0.00058343        0.00000817        0.00000251
     274         -1.031626        1.000000        0.09445131        0.00164118        0.00063283
     275         -1.030746        1.000000        0.00003198        0.00000298        0.00000057
     276         -1.029780        1.000000        0.00000327        0.00000065        0.00000096
     277         -1.028980        1.000000        0.00022082        0.00001814        0.00000984
     278         -1.027492        1.000000        0.00003047        0.00000038        0.00000008
     279         -1.025795        1.000000        0.00000000        0.00000002        0.00000001
     280         -1.023990        1.000000        0.00000503        0.00000004        0.00000001
     281         -1.022755        1.000000        0.00014033        0.00000150        0.00000015
     282         -1.019871        1.000000        0.28157134        0.00210560        0.00045303
     283         -1.017737        1.000000        0.00001624        0.00000019        0.00000005
     284         -1.012409        1.000000        0.00009198        0.00000074        0.00000005
     285         -1.010522        1.000000        0.00003992        0.00000060        0.00000041
     286         -0.880961        1.000000        0.00000000        0.00000000        0.00000000
     287         -0.861761        1.000000        0.00000000        0.00000000        0.00000000
     288         -0.860652        1.000000        0.00000000        0.00000000        0.00000000
     289         -0.854811        1.000000        0.00000000        0.00000000        0.00000000
     290         -0.853189        1.000000        0.00000000        0.00000000        0.00000000
     291         -0.838407        1.000000        0.00000000        0.00000000        0.00000000
     292         -0.837131        1.000000        0.00000000        0.00000000        0.00000000
     293         -0.835422        1.000000        0.00000000        0.00000000        0.00000000
     294         -0.832873        1.000000        0.00000000        0.00000000        0.00000000
     295         -0.813092        1.000000        0.00000000        0.00000000        0.00000000
     296         -0.811309        1.000000        0.00000000        0.00000000        0.00000000
     297         -0.805633        1.000000        0.00000000        0.00000000        0.00000000
     298         -0.800994        1.000000        0.00000000        0.00000000        0.00000000
     299         -0.798544        1.000000        0.00000000        0.00000000        0.00000000
     300         -0.797176        1.000000        0.00000000        0.00000000        0.00000000
     301         -0.796065        1.000000        0.00000000        0.00000000        0.00000000
     302         -0.795247        1.000000        0.00000000        0.00000000        0.00000000
     303         -0.794465        1.000000        0.00000000        0.00000000        0.00000000
     304         -0.792558        1.000000        0.00000000        0.00000000        0.00000000
     305         -0.791532        1.000000        0.00000000        0.00000000        0.00000000
     306         -0.790931        1.000000        0.00000000        0.00000000        0.00000000
     307         -0.790366        1.000000        0.00000000        0.00000000        0.00000000