# Projected DOS for atomic kind Ow at iteration step i = 0, E(Fermi) =    -0.237583 a.u.
#     MO Eigenvalue [a.u.]      Occupation                 s                 p                 d
       1         -3.115895        1.000000        0.00000057        0.00000272        0.00000063
       2         -3.112717        1.000000        0.00000054        0.00000165        0.00000070
       3         -3.112103        1.000000        0.00000223        0.00001136        0.00000353
       4         -3.111180        1.000000        0.00000020        0.00000156        0.00000060
       5         -3.110810        1.000000        0.00000170        0.00000750        0.00000233
       6         -3.110575        1.000000        0.00000109        0.00000249        0.00000121
       7         -3.110067        1.000000        0.00000147        0.00000465        0.00000189
       8         -3.109817        1.000000        0.00000207        0.00000864        0.00000326
       9         -3.109660        1.000000        0.00000020        0.00000045        0.00000029
      10         -3.108831        1.000000        0.00000447        0.00001116        0.00000412
      11         -3.108678        1.000000        0.00000195        0.00000740        0.00000238
      12         -3.108578        1.000000        0.00000137        0.00000553        0.00000133
      13         -3.108350        1.000000        0.00000177        0.00000693        0.00000183
      14         -3.108163        1.000000        0.00000245        0.00000860        0.00000229
      15         -3.107948        1.000000        0.00000228        0.00000830        0.00000169
      16         -3.107865        1.000000        0.00000084        0.00000296        0.00000101
      17         -3.107703        1.000000        0.00000057        0.00000457        0.00000149
      18         -3.107683        1.000000        0.00000057        0.00000385        0.00000091
      19         -3.107641        1.000000        0.00000043        0.00000233        0.00000071
      20         -3.107604        1.000000        0.00000146        0.00000785        0.00000149
      21         -3.107402        1.000000        0.00000104        0.00000529        0.00000085
      22         -3.107115        1.000000        0.00000113        0.00000542        0.00000118
      23         -3.107013        1.000000        0.00000216        0.00001068        0.00000231
      24         -3.106750        1.000000        0.00000032        0.00000195        0.00000055
      25         -3.106619        1.000000        0.00000070        0.00000352        0.00000100
      26         -3.106567        1.000000        0.00000052        0.00000300        0.00000075
      27         -3.106546        1.000000        0.00000038        0.00000265        0.00000093
      28         -3.106258        1.000000        0.00000030        0.00000225        0.00000084
      29         -3.106103        1.000000        0.00000062        0.00000388        0.00000153
      30         -3.104674        1.000000        0.00000283        0.00001711        0.00000299
      31         -1.775522        1.000000        0.00000019        0.00000117        0.00000023
      32         -1.773964        1.000000        0.00000019        0.00000108        0.00000021
      33         -1.773454        1.000000        0.00000005        0.00000070        0.00000017
      34         -1.773008        1.000000        0.00000012        0.00000073        0.00000015
      35         -1.772581        1.000000        0.00000006        0.00000051        0.00000013
      36         -1.772213        1.000000        0.00000010        0.00000066        0.00000016
      37         -1.771852        1.000000        0.00000016        0.00000087        0.00000018
      38         -1.771444        1.000000        0.00000017        0.00000141        0.00000034
      39         -1.771233        1.000000        0.00000030        0.00000148        0.00000022
      40         -1.770977        1.000000        0.00000015        0.00000080        0.00000014
      41         -1.770760        1.000000        0.00000010        0.00000092        0.00000022
      42         -1.770111        1.000000        0.00000015        0.00000085        0.00000017
      43         -1.770034        1.000000        0.00000029        0.00000159        0.00000030
      44         -1.769495        1.000000        0.00000019        0.00000127        0.00000029
      45         -1.769421        1.000000        0.00000009        0.00000072        0.00000021
      46         -1.769063        1.000000        0.00000025        0.00000127        0.00000020
      47         -1.768532        1.000000        0.00000029        0.00000138        0.00000024
      48         -1.768412        1.000000        0.00000031        0.00000163        0.00000033
      49         -1.767811        1.000000        0.00000014        0.00000129        0.00000029
      50         -1.767614        1.000000        0.00000031        0.00000159        0.00000023
      51         -1.767477        1.000000        0.00000010        0.00000063        0.00000015
      52         -1.765531        1.000000        0.00000012        0.00000065        0.00000015
      53         -1.765088        1.000000        0.00000007        0.00000055        0.00000009
      54         -1.764557        1.000000        0.00000015        0.00000079        0.00000014
      55         -1.763772        1.000000        0.00000005        0.00000034        0.00000020
      56         -1.763328        1.000000        0.00000006        0.00000047        0.00000005
      57         -1.762925        1.000000        0.00000011        0.00000075        0.00000014
      58         -1.762506        1.000000        0.00000004        0.00000026        0.00000015
      59         -1.762119        1.000000        0.00000007        0.00000037        0.00000026
      60         -1.762053        1.000000        0.00000018        0.00000083        0.00000019
      61         -1.761895        1.000000        0.00000006        0.00000045        0.00000017
      62         -1.761602        1.000000        0.00000012        0.00000074        0.00000023
      63         -1.761509        1.000000        0.00000015        0.00000088        0.00000022
      64         -1.761377        1.000000        0.00000015        0.00000107        0.00000027
      65         -1.761171        1.000000        0.00000023        0.00000128        0.00000037
      66         -1.760998        1.000000        0.00000012        0.00000067        0.00000017
      67         -1.760877        1.000000        0.00000010        0.00000069        0.00000022
      68         -1.760806        1.000000        0.00000036        0.00000180        0.00000046
      69         -1.760684        1.000000        0.00000035        0.00000152        0.00000023
      70         -1.760645        1.000000        0.00000027        0.00000126        0.00000029
      71         -1.760442        1.000000        0.00000015        0.00000094        0.00000029
      72         -1.760098        1.000000        0.00000013        0.00000081        0.00000025
      73         -1.759962        1.000000        0.00000013        0.00000075        0.00000019
      74         -1.759824        1.000000        0.00000053        0.00000275        0.00000080
      75         -1.759787        1.000000        0.00000019        0.00000111        0.00000034
      76         -1.759638        1.000000        0.00000029        0.00000205        0.00000058
      77         -1.759601        1.000000        0.00000013        0.00000071        0.00000016
      78         -1.759512        1.000000        0.00000016        0.00000124        0.00000041
      79         -1.759406        1.000000        0.00000012        0.00000073        0.00000027
      80         -1.759287        1.000000        0.00000013        0.00000094        0.00000030
      81         -1.759176        1.000000        0.00000013        0.00000117        0.00000045
      82         -1.758872        1.000000        0.00000021        0.00000105        0.00000021
      83         -1.758781        1.000000        0.00000022        0.00000121        0.00000036
      84         -1.758726        1.000000        0.00000024        0.00000140        0.00000036
      85         -1.758559        1.000000        0.00000012        0.00000095        0.00000035
      86         -1.758378        1.000000        0.00000003        0.00000075        0.00000032
      87         -1.758294        1.000000        0.00000012        0.00000206        0.00000078
      88         -1.758087        1.000000        0.00000028        0.00000157        0.00000046
      89         -1.757987        1.000000        0.00000023        0.00000128        0.00000041
      90         -1.757734        1.000000        0.00000038        0.00000183        0.00000028
      91         -1.757649        1.000000        0.00000006        0.00000041        0.00000015
      92         -1.757529        1.000000        0.00000041        0.00000211        0.00000057
      93         -1.757404        1.000000        0.00000010        0.00000116        0.00000040
      94         -1.757324        1.000000        0.00000004        0.00000035        0.00000009
      95         -1.757187        1.000000        0.00000043        0.00000258        0.00000054
      96         -1.757137        1.000000        0.00000020        0.00000102        0.00000020
      97         -1.756770        1.000000        0.00000014        0.00000123        0.00000034
      98         -1.756598        1.000000        0.00000049        0.00000269        0.00000052
      99         -1.756513        1.000000        0.00000016        0.00000090        0.00000018
     100         -1.756186        1.000000        0.00000012        0.00000098        0.00000026
     101         -1.755847        1.000000        0.00000014        0.00000072        0.00000017
     102         -1.755716        1.000000        0.00000007        0.00000040        0.00000010
     103         -1.755306        1.000000        0.00000016        0.00000082        0.00000013
     104         -1.755052        1.000000        0.00000013        0.00000065        0.00000013
     105         -1.754765        1.000000        0.00000023        0.00000087        0.00000011
     106         -1.754094        1.000000        0.00000009        0.00000058        0.00000013
     107         -1.753681        1.000000        0.00000009        0.00000038        0.00000005
     108         -1.753548        1.000000        0.00000024        0.00000108        0.00000013
     109         -1.753256        1.000000        0.00000002        0.00000014        0.00000005
     110         -1.752675        1.000000        0.00000010        0.00000052        0.00000009
     111         -1.752502        1.000000        0.00000006        0.00000033        0.00000008
     112         -1.752253        1.000000        0.00000002        0.00000011        0.00000003
     113         -1.751643        1.000000        0.00000003        0.00000016        0.00000004
     114         -1.751317        1.000000        0.00000022        0.00000101        0.00000016
     115         -1.749193        1.000000        0.00000001        0.00000009        0.00000003
     116         -1.748137        1.000000        0.00000001        0.00000010        0.00000003
     117         -1.747283        1.000000        0.00000001        0.00000010        0.00000004
     118         -1.745962        1.000000        0.00000002        0.00000011        0.00000002
     119         -1.745880        1.000000        0.00000001        0.00000004        0.00000001
     120         -1.744143        1.000000        0.00000002        0.00000009        0.00000001
     121         -1.145318        1.000000        0.00008636        0.00001071        0.00000378
     122         -1.141162        1.000000        0.00008621        0.00001908        0.00000417
     123         -1.135518        1.000000        0.00143859        0.00010321        0.00006387
     124         -1.134356        1.000000        0.00130876        0.00009655        0.00002434
     125         -1.132797        1.000000        0.00009167        0.00002603        0.00000574
     126         -1.131675        1.000000        0.00012110        0.00003025        0.00001056
     127         -1.130657        1.000000        0.00027140        0.00002632        0.00001199
     128         -1.129329        1.000000        0.00147198        0.00009931        0.00005746
     129         -1.127805        1.000000        0.00155169        0.00026568        0.00010738
     130         -1.126970        1.000000        0.00408906        0.00025991        0.00004011
     131         -1.125100        1.000000        0.00080412        0.00008695        0.00004011
     132         -1.124640        1.000000        0.00175127        0.00012572        0.00005977
     133         -1.122028        1.000000        0.00196314        0.00013578        0.00003541
     134         -1.120887        1.000000        0.00134063        0.00021261        0.00006492
     135         -1.119308        1.000000        0.00218985        0.00022636        0.00008189
     136         -1.118408        1.000000        0.00238109        0.00021809        0.00006059
     137         -1.117769        1.000000        0.00099389        0.00011166        0.00002829
     138         -1.116570        1.000000        0.00679724        0.00063405        0.00016360
     139         -1.115096        1.000000        0.00316448        0.00016057        0.00002776
     140         -1.114402        1.000000        0.00044069        0.00009392        0.00002719
     141         -1.114039        1.000000        0.00877099        0.00038080        0.00007284
     142         -1.112381        1.000000        0.00073795        0.00009024        0.00003798
     143         -1.111588        1.000000        0.00467382        0.00026468        0.00006654
     144         -1.111356        1.000000        0.00439190        0.00041406        0.00011112
     145         -1.110913        1.000000        0.00657605        0.00031735        0.00004990
     146         -1.109631        1.000000        0.00582217        0.00041571        0.00008666
     147         -1.107338        1.000000        0.00116335        0.00009511        0.00003572
     148         -1.107163        1.000000        0.00300212        0.00017707        0.00003389
     149         -1.106911        1.000000        0.01651040        0.00059745        0.00006418
     150         -1.105904        1.000000        0.00789279        0.00032191        0.00005113
     151         -1.104513        1.000000        0.09993817        0.00375275        0.00028033
     152         -1.103753        1.000000        0.23481731        0.00869629        0.00057412
     153         -1.103233        1.000000        0.00526261        0.00038965        0.00008812
     154         -1.101116        1.000000        0.02732906        0.00106741        0.00011295
     155         -1.099878        1.000000        0.04593436        0.00164658        0.00017099
     156         -1.099527        1.000000        0.06398068        0.00197190        0.00016722
     157         -1.099360        1.000000        0.14273587        0.00413851        0.00030576
     158         -1.097449        1.000000        0.02336365        0.00089374        0.00011429
     159         -1.097246        1.000000        0.04424813        0.00148682        0.00024199
     160         -1.096336        1.000000        0.11827705        0.00436009        0.00041758
     161         -1.095776        1.000000        0.19815828        0.00728644        0.00065881
     162         -1.094258        1.000000        0.05151696        0.00242157        0.00028736
     163         -1.093701        1.000000        0.02125366        0.00083859        0.00007998
     164         -1.093107        1.000000        0.02580043        0.00136215        0.00023726
     165         -1.091600        1.000000        0.00902756        0.00044429        0.00006193
     166         -1.090890        1.000000        0.01095666        0.00040613        0.00004434
     167         -1.090283        1.000000        0.00600231        0.00029386        0.00002921
     168         -1.089378        1.000000        0.01025082        0.00063452        0.00014900
     169         -1.088506        1.000000        0.00625637        0.00048418        0.00011107
     170         -1.086931        1.000000        0.00775024        0.00049499        0.00008105
     171         -1.086367        1.000000        0.01128655        0.00042422        0.00004713
     172         -1.085327        1.000000        0.01610253        0.00093657        0.00018590
     173         -1.084766        1.000000        0.00211159        0.00010605        0.00002740
     174         -1.083961        1.000000        0.00068180        0.00008309        0.00001960
     175         -1.082920        1.000000        0.00720908        0.00037324        0.00008513
     176         -1.081700        1.000000        0.01166834        0.00054834        0.00013141
     177         -1.081031        1.000000        0.00436807        0.00033215        0.00008053
     178         -1.080558        1.000000        0.00833744        0.00064960        0.00011334
     179         -1.080415        1.000000        0.00856543        0.00040186        0.00008082
     180         -1.080047        1.000000        0.01621978        0.00083461        0.00013563
     181         -1.077309        1.000000        0.04539558        0.00210804        0.00048713
     182         -1.076601        1.000000        0.01021596        0.00051253        0.00011798
     183         -1.076342        1.000000        0.01231036        0.00043896        0.00007091
     184         -1.076154        1.000000        0.02030155        0.00170944        0.00037877
     185         -1.075469        1.000000        0.02324979        0.00098357        0.00017447
     186         -1.074904        1.000000        0.00852750        0.00033584        0.00005736
     187         -1.074160        1.000000        0.01011744        0.00040303        0.00006221
     188         -1.073364        1.000000        0.00597873        0.00027265        0.00005754
     189         -1.071841        1.000000        0.05692136        0.00192908        0.00021997
     190         -1.071436        1.000000        0.02746394        0.00078025        0.00008130
     191         -1.070358        1.000000        0.06563271        0.00197930        0.00020956
     192         -1.070160        1.000000        0.13447477        0.00365434        0.00031687
     193         -1.069551        1.000000        0.04379640        0.00126401        0.00012524
     194         -1.069042        1.000000        0.03567692        0.00102861        0.00012026
     195         -1.068018        1.000000        0.05097783        0.00150830        0.00017391
     196         -1.067683        1.000000        0.10188014        0.00236005        0.00020324
     197         -1.067094        1.000000        0.02724357        0.00071342        0.00009961
     198         -1.066200        1.000000        0.02483307        0.00080539        0.00011208
     199         -1.065105        1.000000        0.06401526        0.00191657        0.00020606
     200         -1.064600        1.000000        0.08559641        0.00287974        0.00035256
     201         -1.063825        1.000000        0.15089530        0.00416259        0.00055062
     202         -1.063672        1.000000        0.10691475        0.00329983        0.00043902
     203         -1.062915        1.000000        0.05329699        0.00187723        0.00036056
     204         -1.062259        1.000000        0.00720487        0.00031916        0.00005527
     205         -1.061986        1.000000        0.06292507        0.00190534        0.00024988
     206         -1.060822        1.000000        0.01676942        0.00058605        0.00010905
     207         -1.060230        1.000000        0.05193540        0.00210115        0.00032999
     208         -1.059971        1.000000        0.01962048        0.00086822        0.00015187
     209         -1.059399        1.000000        0.03525291        0.00110361        0.00014057
     210         -1.058798        1.000000        0.01480964        0.00047819        0.00006171
     211         -1.058498        1.000000        0.02946434        0.00090135        0.00010652
     212         -1.057049        1.000000        0.05330662        0.00146826        0.00015742
     213         -1.056896        1.000000        0.07336805        0.00188762        0.00016699
     214         -1.056403        1.000000        0.07392257        0.00286685        0.00050824
     215         -1.056079        1.000000        0.00361080        0.00013529        0.00002347
     216         -1.055624        1.000000        0.02875848        0.00106824        0.00017568
     217         -1.055288        1.000000        0.00983804        0.00033807        0.00004463
     218         -1.054828        1.000000        0.02267915        0.00076588        0.00009072
     219         -1.054413        1.000000        0.02651799        0.00093247        0.00010249
     220         -1.053990        1.000000        0.01535339        0.00057738        0.00009738
     221         -1.053598        1.000000        0.00378422        0.00024802        0.00003979
     222         -1.053387        1.000000        0.01037832        0.00109193        0.00019249
     223         -1.052953        1.000000        0.00274198        0.00012685        0.00003131
     224         -1.052779        1.000000        0.00471759        0.00027117        0.00005543
     225         -1.052376        1.000000        0.00536768        0.00035396        0.00005746
     226         -1.052297        1.000000        0.00161472        0.00010176        0.00001895
     227         -1.051819        1.000000        0.00631571        0.00031950        0.00006489
     228         -1.051536        1.000000        0.04271520        0.00182380        0.00033809
     229         -1.051232        1.000000        0.00742796        0.00034812        0.00007133
     230         -1.050581        1.000000        0.00305508        0.00036549        0.00007667
     231         -1.050140        1.000000        0.00627285        0.00047760        0.00010007
     232         -1.049834        1.000000        0.00194767        0.00010589        0.00002105
     233         -1.049588        1.000000        0.00057342        0.00005073        0.00001051
     234         -1.049506        1.000000        0.00099823        0.00002785        0.00000384
     235         -1.048565        1.000000        0.00245145        0.00033526        0.00006802
     236         -1.048103        1.000000        0.00984705        0.00043841        0.00007050
     237         -1.048023        1.000000        0.01442575        0.00038864        0.00006477
     238         -1.047651        1.000000        0.00490059        0.00016196        0.00002258
     239         -1.047305        1.000000        0.01453196        0.00036169        0.00004115
     240         -1.046707        1.000000        0.00648941        0.00030530        0.00006337
     241         -1.046592        1.000000        0.00507876        0.00022385        0.00005241
     242         -1.046281        1.000000        0.00210782        0.00012104        0.00001972
     243         -1.045974        1.000000        0.03808173        0.00205330        0.00031132
     244         -1.045866        1.000000        0.00287872        0.00023553        0.00004369
     245         -1.045771        1.000000        0.01579185        0.00122849        0.00019576
     246         -1.045301        1.000000        0.03884197        0.00180002        0.00020605
     247         -1.045020        1.000000        0.01812616        0.00177087        0.00032284
     248         -1.043956        1.000000        0.17417890        0.00781528        0.00087331
     249         -1.043818        1.000000        0.01893150        0.00123970        0.00022655
     250         -1.043244        1.000000        0.04338657        0.00191345        0.00020868
     251         -1.043119        1.000000        0.00268561        0.00017039        0.00002756
     252         -1.042993        1.000000        0.03373450        0.00158023        0.00018570
     253         -1.042515        1.000000        0.17580699        0.00887858        0.00118051
     254         -1.041302        1.000000        0.00281267        0.00012414        0.00002301
     255         -1.041116        1.000000        0.00926174        0.00037956        0.00006882
     256         -1.040594        1.000000        0.00410070        0.00019945        0.00002655
     257         -1.040094        1.000000        0.01570886        0.00042419        0.00004955
     258         -1.039599        1.000000        0.00277204        0.00012768        0.00002218
     259         -1.039408        1.000000        0.00792034        0.00055030        0.00008816
     260         -1.038970        1.000000        0.00350702        0.00016782        0.00002526
     261         -1.038561        1.000000        0.00145065        0.00005396        0.00000676
     262         -1.038022        1.000000        0.00025832        0.00001385        0.00000217
     263         -1.037841        1.000000        0.00723172        0.00037422        0.00005582
     264         -1.036991        1.000000        0.00086209        0.00004845        0.00000800
     265         -1.036854        1.000000        0.01121845        0.00037079        0.00004549
     266         -1.035910        1.000000        0.00023050        0.00000865        0.00000110
     267         -1.035115        1.000000        0.00269658        0.00016712        0.00003477
     268         -1.034275        1.000000        0.00075536        0.00005831        0.00001450
     269         -1.033697        1.000000        0.00022784        0.00003278        0.00000848
     270         -1.033444        1.000000        0.08054385        0.00304645        0.00043289
     271         -1.033385        1.000000        0.05654495        0.00235721        0.00037164
     272         -1.033262        1.000000        0.00074695        0.00009376        0.00002484
     273         -1.032346        1.000000        0.16308328        0.00626613        0.00083757
     274         -1.031626        1.000000        0.00053340        0.00001873        0.00000220
     275         -1.030746        1.000000        0.00000095        0.00000020        0.00000004
     276         -1.029780        1.000000        0.00000618        0.00000134        0.00000036
     277         -1.028980        1.000000        0.00001117        0.00000263        0.00000062
     278         -1.027492        1.000000        0.00360396        0.00028067        0.00005028
     279         -1.025795        1.000000        0.00092790        0.00025102        0.00004255
     280         -1.023990        1.000000        0.00218195        0.00015786        0.00003412
     281         -1.022755        1.000000        0.00001244        0.00000098        0.00000019
     282         -1.019871        1.000000        0.00000314        0.00000057        0.00000012
     283         -1.017737        1.000000        0.02627791        0.00629172        0.00141176
     284         -1.012409        1.000000        0.00000885        0.00000127        0.00000027
     285         -1.010522        1.000000        0.00000008        0.00000002        0.00000000
     286         -0.880961        1.000000        0.00005192        0.00006652        0.00002836
     287         -0.861761        1.000000        0.00004968        0.00011629        0.00003572
     288         -0.860652        1.000000        0.00004169        0.00005667        0.00002131
     289         -0.854811        1.000000        0.00004408        0.00007710        0.00002623
     290         -0.853189        1.000000        0.00002335        0.00003774        0.00001376
     291         -0.838407        1.000000        0.00004070        0.00007205        0.00002364
     292         -0.837131        1.000000        0.00003692        0.00011235        0.00002867
     293         -0.835422        1.000000        0.00003235        0.00006245        0.00002041
     294         -0.832873        1.000000        0.00002293        0.00003695        0.00000886
     295         -0.813092        1.000000        0.00003694        0.00010253        0.00002629
     296         -0.811309        1.000000        0.00002627        0.00009243        0.00002001
     297         -0.805633        1.000000        0.00006822        0.00018993        0.00004994
     298         -0.800994        1.000000        0.00007967        0.00022753        0.00005228
     299         -0.798544        1.000000        0.00005555        0.00010732        0.00002998
     300         -0.797176        1.000000        0.00002262        0.00005753        0.00001998
     301         -0.796065        1.000000        0.00003233        0.00010569        0.00002323
     302         -0.795247        1.000000        0.00006648        0.00013638        0.00003217
     303         -0.794465        1.000000        0.00002270        0.00005082        0.00001169
     304         -0.792558        1.000000        0.00001446        0.00005690        0.00001102
     305         -0.791532        1.000000        0.00004373        0.00011789        0.00003264
     306         -0.790931        1.000000        0.00002074        0.00008721        0.00002576
     307         -0.790366        1.000000        0.00002341        0.00007833        0.00001936