# Projected DOS for list 319 of 1 atoms, at iteration step i = 0, E(Fermi) =    -0.237583 a.u.
#     MO Eigenvalue [a.u.]      Occupation                 s                 p                 d
       1         -3.115895        1.000000        0.00000003        0.00000001        0.00000000
       2         -3.112717        1.000000        0.00002456        0.00010355        0.00001130
       3         -3.112103        1.000000        0.00000003        0.00000052        0.00000005
       4         -3.111180        1.000000        0.00000011        0.00000024        0.00000004
       5         -3.110810        1.000000        0.00000076        0.00000568        0.00000072
       6         -3.110575        1.000000        0.00003317        0.00010394        0.00001062
       7         -3.110067        1.000000        0.00000608        0.00001226        0.00000092
       8         -3.109817        1.000000        0.00043976        0.00031132        0.00001946
       9         -3.109660        1.000000        0.00000003        0.00000275        0.00000033
      10         -3.108831        1.000000        0.00043796        0.00053719        0.00001572
      11         -3.108678        1.000000        0.00017395        0.00018867        0.00001413
      12         -3.108578        1.000000        0.00001511        0.00005357        0.00000556
      13         -3.108350        1.000000        0.00036054        0.00064406        0.00003887
      14         -3.108163        1.000000        0.00317922        0.00407801        0.00007322
      15         -3.107948        1.000000        0.00010433        0.00116184        0.00017442
      16         -3.107865        1.000000        0.00001495        0.00022772        0.00003092
      17         -3.107703        1.000000        0.00002520        0.00009075        0.00000741
      18         -3.107683        1.000000        0.00009601        0.00020620        0.00001344
      19         -3.107641        1.000000        0.00008151        0.00022642        0.00001933
      20         -3.107604        1.000000        0.00001034        0.00017394        0.00002815
      21         -3.107402        1.000000        0.00077881        0.00142642        0.00003097
      22         -3.107115        1.000000        0.00026681        0.00373752        0.00062118
      23         -3.107013        1.000000        0.00000275        0.00013429        0.00001508
      24         -3.106750        1.000000        0.00069834        0.00401798        0.00055153
      25         -3.106619        1.000000        0.00002595        0.00103782        0.00017372
      26         -3.106567        1.000000        0.00000853        0.00007412        0.00001402
      27         -3.106546        1.000000        0.00000390        0.00001327        0.00000265
      28         -3.106258        1.000000        0.00000035        0.00003997        0.00000752
      29         -3.106103        1.000000        0.00000029        0.00000657        0.00000384
      30         -3.104674        1.000000        0.00000526        0.00011625        0.00001283
      31         -1.775522        1.000000        0.00003955        0.00011208        0.00000976
      32         -1.773964        1.000000        0.00000056        0.00000844        0.00000281
      33         -1.773454        1.000000        0.00000119        0.00001699        0.00000655
      34         -1.773008        1.000000        0.00001210        0.00004081        0.00000531
      35         -1.772581        1.000000        0.00002928        0.00011872        0.00002024
      36         -1.772213        1.000000        0.00006434        0.00021306        0.00002972
      37         -1.771852        1.000000        0.00014758        0.00039009        0.00002893
      38         -1.771444        1.000000        0.00000082        0.00001344        0.00000711
      39         -1.771233        1.000000        0.00000514        0.00003847        0.00001033
      40         -1.770977        1.000000        0.00023477        0.00066981        0.00006672
      41         -1.770760        1.000000        0.00031140        0.00088529        0.00008468
      42         -1.770111        1.000000        0.00000113        0.00000968        0.00000371
      43         -1.770034        1.000000        0.00000651        0.00001897        0.00000472
      44         -1.769495        1.000000        0.00001837        0.00011679        0.00003805
      45         -1.769421        1.000000        0.00009384        0.00026975        0.00004433
      46         -1.769063        1.000000        0.00000119        0.00004893        0.00002625
      47         -1.768532        1.000000        0.00036122        0.00093966        0.00006609
      48         -1.768412        1.000000        0.00003034        0.00010630        0.00002499
      49         -1.767811        1.000000        0.00051302        0.00130059        0.00008918
      50         -1.767614        1.000000        0.00008984        0.00048059        0.00011028
      51         -1.767477        1.000000        0.00019931        0.00051695        0.00004726
      52         -1.765531        1.000000        0.00001231        0.00006739        0.00002937
      53         -1.765088        1.000000        0.00001143        0.00002610        0.00000420
      54         -1.764557        1.000000        0.00005225        0.00015871        0.00002239
      55         -1.763772        1.000000        0.00001925        0.00005704        0.00001151
      56         -1.763328        1.000000        0.00003459        0.00006163        0.00000510
      57         -1.762925        1.000000        0.00016832        0.00025713        0.00000617
      58         -1.762506        1.000000        0.00000672        0.00000952        0.00000080
      59         -1.762119        1.000000        0.00000010        0.00008455        0.00003099
      60         -1.762053        1.000000        0.00000392        0.00007644        0.00004710
      61         -1.761895        1.000000        0.00000922        0.00004776        0.00001505
      62         -1.761602        1.000000        0.00007014        0.00011295        0.00000609
      63         -1.761509        1.000000        0.00037871        0.00072511        0.00001319
      64         -1.761377        1.000000        0.00007486        0.00019177        0.00002114
      65         -1.761171        1.000000        0.00002001        0.00007419        0.00000753
      66         -1.760998        1.000000        0.00001359        0.00002640        0.00001021
      67         -1.760877        1.000000        0.00017180        0.00056226        0.00010760
      68         -1.760806        1.000000        0.00000174        0.00039354        0.00016352
      69         -1.760684        1.000000        0.00038507        0.00077598        0.00003385
      70         -1.760645        1.000000        0.00006855        0.00020894        0.00003042
      71         -1.760442        1.000000        0.00012992        0.00024682        0.00000495
      72         -1.760098        1.000000        0.00006204        0.00012757        0.00000741
      73         -1.759962        1.000000        0.00000061        0.00015080        0.00006981
      74         -1.759824        1.000000        0.00012359        0.00047443        0.00012383
      75         -1.759787        1.000000        0.00007071        0.00021718        0.00004829
      76         -1.759638        1.000000        0.00006842        0.00029284        0.00006437
      77         -1.759601        1.000000        0.00000096        0.00018037        0.00007582
      78         -1.759512        1.000000        0.00000365        0.00007474        0.00003396
      79         -1.759406        1.000000        0.00001937        0.00056623        0.00022534
      80         -1.759287        1.000000        0.00000070        0.00005200        0.00002329
      81         -1.759176        1.000000        0.00004216        0.00016932        0.00004886
      82         -1.758872        1.000000        0.00005783        0.00031646        0.00006685
      83         -1.758781        1.000000        0.00002018        0.00070233        0.00029421
      84         -1.758726        1.000000        0.00000896        0.00063724        0.00022787
      85         -1.758559        1.000000        0.00020225        0.00120660        0.00034648
      86         -1.758378        1.000000        0.00008431        0.00057845        0.00018547
      87         -1.758294        1.000000        0.00001048        0.00011952        0.00003987
      88         -1.758087        1.000000        0.00000680        0.00004787        0.00000704
      89         -1.757987        1.000000        0.00011299        0.00039677        0.00006184
      90         -1.757734        1.000000        0.00000146        0.00008524        0.00005363
      91         -1.757649        1.000000        0.00001782        0.00004298        0.00002212
      92         -1.757529        1.000000        0.00010135        0.00073956        0.00025302
      93         -1.757404        1.000000        0.00001048        0.00029172        0.00011097
      94         -1.757324        1.000000        0.00002308        0.00004841        0.00000282
      95         -1.757187        1.000000        0.00002854        0.00007394        0.00000483
      96         -1.757137        1.000000        0.00000152        0.00027612        0.00009465
      97         -1.756770        1.000000        0.00001655        0.00013358        0.00005675
      98         -1.756598        1.000000        0.00000104        0.00089597        0.00038561
      99         -1.756513        1.000000        0.00000272        0.00015492        0.00009659
     100         -1.756186        1.000000        0.00001212        0.00029996        0.00016365
     101         -1.755847        1.000000        0.00000693        0.00061689        0.00026083
     102         -1.755716        1.000000        0.00000315        0.00022428        0.00009795
     103         -1.755306        1.000000        0.00001753        0.00006292        0.00002616
     104         -1.755052        1.000000        0.00003767        0.00027727        0.00011789
     105         -1.754765        1.000000        0.00002767        0.00003786        0.00000343
     106         -1.754094        1.000000        0.00000016        0.00002189        0.00002372
     107         -1.753681        1.000000        0.00000029        0.00007142        0.00004521
     108         -1.753548        1.000000        0.00001705        0.00011371        0.00008515
     109         -1.753256        1.000000        0.00000062        0.00002796        0.00000686
     110         -1.752675        1.000000        0.00000184        0.00013773        0.00011762
     111         -1.752502        1.000000        0.00000061        0.00006158        0.00002791
     112         -1.752253        1.000000        0.00000443        0.00015560        0.00010278
     113         -1.751643        1.000000        0.00001367        0.00020099        0.00013681
     114         -1.751317        1.000000        0.00007329        0.00052710        0.00019494
     115         -1.749193        1.000000        0.00000011        0.00000920        0.00000291
     116         -1.748137        1.000000        0.00000034        0.00003454        0.00000812
     117         -1.747283        1.000000        0.00000086        0.00008144        0.00002341
     118         -1.745962        1.000000        0.00000039        0.00004324        0.00001046
     119         -1.745880        1.000000        0.00000009        0.00002492        0.00001657
     120         -1.744143        1.000000        0.00000153        0.00019472        0.00012143
     121         -1.145318        1.000000        0.00000003        0.00000004        0.00000000
     122         -1.141162        1.000000        0.00000001        0.00000002        0.00000000
     123         -1.135518        1.000000        0.00000029        0.00000036        0.00000001
     124         -1.134356        1.000000        0.00000002        0.00000000        0.00000000
     125         -1.132797        1.000000        0.00000001        0.00000001        0.00000000
     126         -1.131675        1.000000        0.00000008        0.00000011        0.00000001
     127         -1.130657        1.000000        0.00000001        0.00000002        0.00000000
     128         -1.129329        1.000000        0.00000001        0.00000004        0.00000000
     129         -1.127805        1.000000        0.00000001        0.00000000        0.00000000
     130         -1.126970        1.000000        0.00000003        0.00000004        0.00000000
     131         -1.125100        1.000000        0.00000009        0.00000008        0.00000000
     132         -1.124640        1.000000        0.00000001        0.00000002        0.00000000
     133         -1.122028        1.000000        0.00000000        0.00000001        0.00000000
     134         -1.120887        1.000000        0.00000000        0.00000000        0.00000000
     135         -1.119308        1.000000        0.00000046        0.00000080        0.00000004
     136         -1.118408        1.000000        0.00000000        0.00000001        0.00000000
     137         -1.117769        1.000000        0.00000002        0.00000003        0.00000000
     138         -1.116570        1.000000        0.00000003        0.00000004        0.00000000
     139         -1.115096        1.000000        0.00000003        0.00000005        0.00000000
     140         -1.114402        1.000000        0.00000007        0.00000016        0.00000001
     141         -1.114039        1.000000        0.00000001        0.00000004        0.00000000
     142         -1.112381        1.000000        0.00000000        0.00000001        0.00000000
     143         -1.111588        1.000000        0.00000001        0.00000002        0.00000000
     144         -1.111356        1.000000        0.00000037        0.00000062        0.00000004
     145         -1.110913        1.000000        0.00000000        0.00000001        0.00000000
     146         -1.109631        1.000000        0.00000003        0.00000003        0.00000000
     147         -1.107338        1.000000        0.00000000        0.00000000        0.00000000
     148         -1.107163        1.000000        0.00000003        0.00000007        0.00000001
     149         -1.106911        1.000000        0.00000001        0.00000004        0.00000000
     150         -1.105904        1.000000        0.00000000        0.00000000        0.00000000
     151         -1.104513        1.000000        0.00000000        0.00000002        0.00000000
     152         -1.103753        1.000000        0.00000005        0.00000007        0.00000000
     153         -1.103233        1.000000        0.00000000        0.00000001        0.00000000
     154         -1.101116        1.000000        0.00000009        0.00000023        0.00000001
     155         -1.099878        1.000000        0.00000000        0.00000003        0.00000000
     156         -1.099527        1.000000        0.00000001        0.00000004        0.00000000
     157         -1.099360        1.000000        0.00000000        0.00000000        0.00000000
     158         -1.097449        1.000000        0.00000003        0.00000005        0.00000001
     159         -1.097246        1.000000        0.00000000        0.00000002        0.00000000
     160         -1.096336        1.000000        0.00000004        0.00000007        0.00000000
     161         -1.095776        1.000000        0.00000002        0.00000003        0.00000000
     162         -1.094258        1.000000        0.00000000        0.00000003        0.00000000
     163         -1.093701        1.000000        0.00000000        0.00000001        0.00000000
     164         -1.093107        1.000000        0.00000008        0.00000017        0.00000001
     165         -1.091600        1.000000        0.00000000        0.00000001        0.00000000
     166         -1.090890        1.000000        0.00000010        0.00000024        0.00000002
     167         -1.090283        1.000000        0.00000000        0.00000003        0.00000000
     168         -1.089378        1.000000        0.00000009        0.00000022        0.00000001
     169         -1.088506        1.000000        0.00000000        0.00000001        0.00000000
     170         -1.086931        1.000000        0.00000001        0.00000005        0.00000000
     171         -1.086367        1.000000        0.00000000        0.00000001        0.00000000
     172         -1.085327        1.000000        0.00000001        0.00000008        0.00000001
     173         -1.084766        1.000000        0.00000002        0.00000005        0.00000000
     174         -1.083961        1.000000        0.00000000        0.00000001        0.00000000
     175         -1.082920        1.000000        0.00000002        0.00000006        0.00000000
     176         -1.081700        1.000000        0.00000000        0.00000003        0.00000000
     177         -1.081031        1.000000        0.00000002        0.00000006        0.00000000
     178         -1.080558        1.000000        0.00000004        0.00000022        0.00000001
     179         -1.080415        1.000000        0.00000001        0.00000002        0.00000001
     180         -1.080047        1.000000        0.00000000        0.00000000        0.00000000
     181         -1.077309        1.000000        0.00000002        0.00000001        0.00000000
     182         -1.076601        1.000000        0.00000000        0.00000003        0.00000000
     183         -1.076342        1.000000        0.00000000        0.00000003        0.00000000
     184         -1.076154        1.000000        0.00000003        0.00000007        0.00000001
     185         -1.075469        1.000000        0.00000000        0.00000002        0.00000000
     186         -1.074904        1.000000        0.00000001        0.00000002        0.00000000
     187         -1.074160        1.000000        0.00000004        0.00000010        0.00000001
     188         -1.073364        1.000000        0.00000000        0.00000004        0.00000000
     189         -1.071841        1.000000        0.00000004        0.00000018        0.00000001
     190         -1.071436        1.000000        0.00000006        0.00000015        0.00000002
     191         -1.070358        1.000000        0.00000012        0.00000039        0.00000003
     192         -1.070160        1.000000        0.00000000        0.00000002        0.00000000
     193         -1.069551        1.000000        0.00000000        0.00000003        0.00000000
     194         -1.069042        1.000000        0.00000000        0.00000001        0.00000000
     195         -1.068018        1.000000        0.00000008        0.00000069        0.00000008
     196         -1.067683        1.000000        0.00000010        0.00000091        0.00000008
     197         -1.067094        1.000000        0.00000001        0.00000006        0.00000000
     198         -1.066200        1.000000        0.00000000        0.00000000        0.00000000
     199         -1.065105        1.000000        0.00000009        0.00000045        0.00000009
     200         -1.064600        1.000000        0.00000002        0.00000024        0.00000003
     201         -1.063825        1.000000        0.00000062        0.00000460        0.00000077
     202         -1.063672        1.000000        0.00000029        0.00000184        0.00000034
     203         -1.062915        1.000000        0.00000010        0.00000092        0.00000023
     204         -1.062259        1.000000        0.00000001        0.00000011        0.00000001
     205         -1.061986        1.000000        0.00000012        0.00000123        0.00000027
     206         -1.060822        1.000000        0.00000003        0.00000050        0.00000006
     207         -1.060230        1.000000        0.00000004        0.00000021        0.00000008
     208         -1.059971        1.000000        0.00000001        0.00000021        0.00000002
     209         -1.059399        1.000000        0.00000000        0.00000001        0.00000000
     210         -1.058798        1.000000        0.00000001        0.00000011        0.00000003
     211         -1.058498        1.000000        0.00000002        0.00000021        0.00000002
     212         -1.057049        1.000000        0.00000005        0.00000069        0.00000007
     213         -1.056896        1.000000        0.00000000        0.00000035        0.00000004
     214         -1.056403        1.000000        0.00000007        0.00000281        0.00000058
     215         -1.056079        1.000000        0.00000000        0.00000004        0.00000001
     216         -1.055624        1.000000        0.00000003        0.00000077        0.00000018
     217         -1.055288        1.000000        0.00000000        0.00000020        0.00000004
     218         -1.054828        1.000000        0.00000001        0.00000023        0.00000007
     219         -1.054413        1.000000        0.00000000        0.00000016        0.00000004
     220         -1.053990        1.000000        0.00000003        0.00000020        0.00000007
     221         -1.053598        1.000000        0.00000000        0.00000003        0.00000000
     222         -1.053387        1.000000        0.00000000        0.00000002        0.00000000
     223         -1.052953        1.000000        0.00000000        0.00000006        0.00000001
     224         -1.052779        1.000000        0.00000000        0.00000002        0.00000001
     225         -1.052376        1.000000        0.00000000        0.00000001        0.00000000
     226         -1.052297        1.000000        0.00000000        0.00000000        0.00000000
     227         -1.051819        1.000000        0.00000000        0.00000021        0.00000002
     228         -1.051536        1.000000        0.00000005        0.00000028        0.00000004
     229         -1.051232        1.000000        0.00000001        0.00000013        0.00000004
     230         -1.050581        1.000000        0.00000000        0.00000008        0.00000001
     231         -1.050140        1.000000        0.00000003        0.00000035        0.00000004
     232         -1.049834        1.000000        0.00000000        0.00000000        0.00000000
     233         -1.049588        1.000000        0.00000000        0.00000000        0.00000000
     234         -1.049506        1.000000        0.00000000        0.00000000        0.00000000
     235         -1.048565        1.000000        0.00000000        0.00000002        0.00000000
     236         -1.048103        1.000000        0.00000002        0.00000027        0.00000003
     237         -1.048023        1.000000        0.00000002        0.00000025        0.00000002
     238         -1.047651        1.000000        0.00000000        0.00000003        0.00000000
     239         -1.047305        1.000000        0.00000001        0.00000012        0.00000002
     240         -1.046707        1.000000        0.00000001        0.00000014        0.00000001
     241         -1.046592        1.000000        0.00000002        0.00000018        0.00000001
     242         -1.046281        1.000000        0.00000001        0.00000003        0.00000000
     243         -1.045974        1.000000        0.00000006        0.00000018        0.00000004
     244         -1.045866        1.000000        0.00000000        0.00000001        0.00000000
     245         -1.045771        1.000000        0.00000000        0.00000002        0.00000001
     246         -1.045301        1.000000        0.00000005        0.00000011        0.00000001
     247         -1.045020        1.000000        0.00000000        0.00000007        0.00000001
     248         -1.043956        1.000000        0.00000034        0.00000081        0.00000032
     249         -1.043818        1.000000        0.00000005        0.00000022        0.00000004
     250         -1.043244        1.000000        0.00000013        0.00000039        0.00000011
     251         -1.043119        1.000000        0.00000000        0.00000001        0.00000000
     252         -1.042993        1.000000        0.00000007        0.00000020        0.00000004
     253         -1.042515        1.000000        0.00000029        0.00000074        0.00000014
     254         -1.041302        1.000000        0.00000000        0.00000010        0.00000001
     255         -1.041116        1.000000        0.00000002        0.00000031        0.00000003
     256         -1.040594        1.000000        0.00000000        0.00000001        0.00000000
     257         -1.040094        1.000000        0.00000000        0.00000015        0.00000003
     258         -1.039599        1.000000        0.00000000        0.00000010        0.00000001
     259         -1.039408        1.000000        0.00000001        0.00000019        0.00000003
     260         -1.038970        1.000000        0.00000000        0.00000006        0.00000001
     261         -1.038561        1.000000        0.00000000        0.00000002        0.00000000
     262         -1.038022        1.000000        0.00000000        0.00000000        0.00000000
     263         -1.037841        1.000000        0.00000000        0.00000001        0.00000000
     264         -1.036991        1.000000        0.00000000        0.00000002        0.00000000
     265         -1.036854        1.000000        0.00000000        0.00000002        0.00000000
     266         -1.035910        1.000000        0.00000000        0.00000000        0.00000000
     267         -1.035115        1.000000        0.00000000        0.00000001        0.00000000
     268         -1.034275        1.000000        0.00000000        0.00000000        0.00000000
     269         -1.033697        1.000000        0.00000000        0.00000000        0.00000000
     270         -1.033444        1.000000        0.00000000        0.00000010        0.00000001
     271         -1.033385        1.000000        0.00000000        0.00000006        0.00000000
     272         -1.033262        1.000000        0.00000000        0.00000000        0.00000000
     273         -1.032346        1.000000        0.00000001        0.00000031        0.00000002
     274         -1.031626        1.000000        0.00000000        0.00000000        0.00000000
     275         -1.030746        1.000000        0.00000000        0.00000000        0.00000000
     276         -1.029780        1.000000        0.00000000        0.00000000        0.00000000
     277         -1.028980        1.000000        0.00000000        0.00000000        0.00000000
     278         -1.027492        1.000000        0.00000000        0.00000003        0.00000000
     279         -1.025795        1.000000        0.00000000        0.00000000        0.00000000
     280         -1.023990        1.000000        0.00000000        0.00000003        0.00000000
     281         -1.022755        1.000000        0.00000000        0.00000000        0.00000000
     282         -1.019871        1.000000        0.00000000        0.00000000        0.00000000
     283         -1.017737        1.000000        0.00000001        0.00000006        0.00000005
     284         -1.012409        1.000000        0.00000000        0.00000000        0.00000000
     285         -1.010522        1.000000        0.00000000        0.00000000        0.00000000
     286         -0.880961        1.000000        0.00512382        0.00029165        0.00000585
     287         -0.861761        1.000000        0.00453058        0.00024729        0.00001444
     288         -0.860652        1.000000        0.00000105        0.00048830        0.00002531
     289         -0.854811        1.000000        0.00939574        0.00141189        0.00002752
     290         -0.853189        1.000000        0.01451959        0.00088746        0.00000827
     291         -0.838407        1.000000        0.00606868        0.00079614        0.00005163
     292         -0.837131        1.000000        0.00049540        0.00150231        0.00003077
     293         -0.835422        1.000000        0.00919978        0.00042780        0.00002054
     294         -0.832873        1.000000        0.00307141        0.00095070        0.00004088
     295         -0.813092        1.000000        0.00289172        0.00052311        0.00001818
     296         -0.811309        1.000000        0.00767152        0.00037581        0.00013270
     297         -0.805633        1.000000        0.00213712        0.00012865        0.00005203
     298         -0.800994        1.000000        0.00374483        0.00013498        0.00007336
     299         -0.798544        1.000000        0.00016446        0.00010290        0.00000786
     300         -0.797176        1.000000        0.02349196        0.00131112        0.00002121
     301         -0.796065        1.000000        0.00190901        0.00089013        0.00008537
     302         -0.795247        1.000000        0.00108417        0.00033724        0.00000795
     303         -0.794465        1.000000        0.01766925        0.00087270        0.00005786
     304         -0.792558        1.000000        0.00255620        0.00026635        0.00000369
     305         -0.791532        1.000000        0.01024167        0.00054966        0.00024574
     306         -0.790931        1.000000        0.01529084        0.00031815        0.00006470
     307         -0.790366        1.000000        0.00372243        0.00041719        0.00003787