# Projected DOS for atomic kind Hw at iteration step i = 0, E(Fermi) =    -0.237583 a.u.
#     MO Eigenvalue [a.u.]      Occupation                 s                 p
       1         -3.115895        1.000000        0.00000812        0.00010944
       2         -3.112717        1.000000        0.00000440        0.00005789
       3         -3.112103        1.000000        0.00004663        0.00032354
       4         -3.111180        1.000000        0.00000581        0.00004380
       5         -3.110810        1.000000        0.00001242        0.00010919
       6         -3.110575        1.000000        0.00000194        0.00004601
       7         -3.110067        1.000000        0.00002420        0.00016295
       8         -3.109817        1.000000        0.00002000        0.00011486
       9         -3.109660        1.000000        0.00000076        0.00003332
      10         -3.108831        1.000000        0.00001260        0.00018150
      11         -3.108678        1.000000        0.00000601        0.00011540
      12         -3.108578        1.000000        0.00000233        0.00005886
      13         -3.108350        1.000000        0.00001321        0.00008600
      14         -3.108163        1.000000        0.00000549        0.00007578
      15         -3.107948        1.000000        0.00000454        0.00006188
      16         -3.107865        1.000000        0.00000291        0.00002858
      17         -3.107703        1.000000        0.00000605        0.00005934
      18         -3.107683        1.000000        0.00000173        0.00001737
      19         -3.107641        1.000000        0.00000368        0.00003186
      20         -3.107604        1.000000        0.00000470        0.00003304
      21         -3.107402        1.000000        0.00000221        0.00002271
      22         -3.107115        1.000000        0.00000334        0.00002354
      23         -3.107013        1.000000        0.00000465        0.00005575
      24         -3.106750        1.000000        0.00000075        0.00000888
      25         -3.106619        1.000000        0.00000140        0.00001528
      26         -3.106567        1.000000        0.00000360        0.00001088
      27         -3.106546        1.000000        0.00000852        0.00003613
      28         -3.106258        1.000000        0.00000391        0.00003742
      29         -3.106103        1.000000        0.00000238        0.00003142
      30         -3.104674        1.000000        0.00000695        0.00004119
      31         -1.775522        1.000000        0.00000151        0.00000744
      32         -1.773964        1.000000        0.00000284        0.00000797
      33         -1.773454        1.000000        0.00000057        0.00000309
      34         -1.773008        1.000000        0.00000034        0.00000225
      35         -1.772581        1.000000        0.00000030        0.00000164
      36         -1.772213        1.000000        0.00000053        0.00000220
      37         -1.771852        1.000000        0.00000048        0.00000355
      38         -1.771444        1.000000        0.00000109        0.00000583
      39         -1.771233        1.000000        0.00000173        0.00000503
      40         -1.770977        1.000000        0.00000102        0.00000352
      41         -1.770760        1.000000        0.00000076        0.00000313
      42         -1.770111        1.000000        0.00000088        0.00000512
      43         -1.770034        1.000000        0.00000161        0.00001005
      44         -1.769495        1.000000        0.00000040        0.00000336
      45         -1.769421        1.000000        0.00000106        0.00000681
      46         -1.769063        1.000000        0.00000112        0.00000374
      47         -1.768532        1.000000        0.00000079        0.00000356
      48         -1.768412        1.000000        0.00000097        0.00000521
      49         -1.767811        1.000000        0.00000104        0.00000399
      50         -1.767614        1.000000        0.00000151        0.00000491
      51         -1.767477        1.000000        0.00000049        0.00000324
      52         -1.765531        1.000000        0.00000033        0.00000194
      53         -1.765088        1.000000        0.00000042        0.00001860
      54         -1.764557        1.000000        0.00000064        0.00000372
      55         -1.763772        1.000000        0.00000075        0.00001209
      56         -1.763328        1.000000        0.00000029        0.00000637
      57         -1.762925        1.000000        0.00000094        0.00000886
      58         -1.762506        1.000000        0.00000030        0.00000332
      59         -1.762119        1.000000        0.00000071        0.00000390
      60         -1.762053        1.000000        0.00000062        0.00000247
      61         -1.761895        1.000000        0.00000066        0.00000362
      62         -1.761602        1.000000        0.00000116        0.00000388
      63         -1.761509        1.000000        0.00000129        0.00000473
      64         -1.761377        1.000000        0.00000080        0.00000419
      65         -1.761171        1.000000        0.00000072        0.00000250
      66         -1.760998        1.000000        0.00000033        0.00000541
      67         -1.760877        1.000000        0.00000037        0.00000205
      68         -1.760806        1.000000        0.00000166        0.00000210
      69         -1.760684        1.000000        0.00000114        0.00000579
      70         -1.760645        1.000000        0.00000076        0.00000188
      71         -1.760442        1.000000        0.00000200        0.00000289
      72         -1.760098        1.000000        0.00000038        0.00000213
      73         -1.759962        1.000000        0.00000052        0.00000222
      74         -1.759824        1.000000        0.00000094        0.00000145
      75         -1.759787        1.000000        0.00000084        0.00000220
      76         -1.759638        1.000000        0.00000114        0.00000154
      77         -1.759601        1.000000        0.00000022        0.00000140
      78         -1.759512        1.000000        0.00000077        0.00000155
      79         -1.759406        1.000000        0.00000029        0.00000127
      80         -1.759287        1.000000        0.00000067        0.00000276
      81         -1.759176        1.000000        0.00000035        0.00000151
      82         -1.758872        1.000000        0.00000062        0.00000303
      83         -1.758781        1.000000        0.00000053        0.00000140
      84         -1.758726        1.000000        0.00000045        0.00000115
      85         -1.758559        1.000000        0.00000052        0.00000141
      86         -1.758378        1.000000        0.00000027        0.00000094
      87         -1.758294        1.000000        0.00000032        0.00000065
      88         -1.758087        1.000000        0.00000069        0.00000099
      89         -1.757987        1.000000        0.00000057        0.00000147
      90         -1.757734        1.000000        0.00000059        0.00000204
      91         -1.757649        1.000000        0.00000023        0.00000197
      92         -1.757529        1.000000        0.00000069        0.00000120
      93         -1.757404        1.000000        0.00000024        0.00000058
      94         -1.757324        1.000000        0.00000018        0.00000057
      95         -1.757187        1.000000        0.00000116        0.00000140
      96         -1.757137        1.000000        0.00000034        0.00000112
      97         -1.756770        1.000000        0.00000080        0.00000082
      98         -1.756598        1.000000        0.00000071        0.00000132
      99         -1.756513        1.000000        0.00000021        0.00000103
     100         -1.756186        1.000000        0.00000042        0.00000126
     101         -1.755847        1.000000        0.00000021        0.00000089
     102         -1.755716        1.000000        0.00000013        0.00000095
     103         -1.755306        1.000000        0.00000086        0.00000259
     104         -1.755052        1.000000        0.00000030        0.00000159
     105         -1.754765        1.000000        0.00000034        0.00000260
     106         -1.754094        1.000000        0.00000054        0.00000122
     107         -1.753681        1.000000        0.00000014        0.00000079
     108         -1.753548        1.000000        0.00000057        0.00000366
     109         -1.753256        1.000000        0.00000006        0.00000059
     110         -1.752675        1.000000        0.00000033        0.00000187
     111         -1.752502        1.000000        0.00000032        0.00000100
     112         -1.752253        1.000000        0.00000005        0.00000021
     113         -1.751643        1.000000        0.00000015        0.00000091
     114         -1.751317        1.000000        0.00000046        0.00000224
     115         -1.749193        1.000000        0.00000002        0.00000039
     116         -1.748137        1.000000        0.00000004        0.00000016
     117         -1.747283        1.000000        0.00000005        0.00000019
     118         -1.745962        1.000000        0.00000006        0.00000021
     119         -1.745880        1.000000        0.00000005        0.00000016
     120         -1.744143        1.000000        0.00000002        0.00000015
     121         -1.145318        1.000000        0.00023003        0.00042366
     122         -1.141162        1.000000        0.00018291        0.00041259
     123         -1.135518        1.000000        0.00338827        0.00346753
     124         -1.134356        1.000000        0.00212823        0.00194331
     125         -1.132797        1.000000        0.00017799        0.00046631
     126         -1.131675        1.000000        0.00027546        0.00061618
     127         -1.130657        1.000000        0.00055424        0.00067020
     128         -1.129329        1.000000        0.00296742        0.00257049
     129         -1.127805        1.000000        0.00393955        0.00430690
     130         -1.126970        1.000000        0.00519217        0.00445746
     131         -1.125100        1.000000        0.00168278        0.00210877
     132         -1.124640        1.000000        0.00278422        0.00246379
     133         -1.122028        1.000000        0.00249984        0.00194902
     134         -1.120887        1.000000        0.00181404        0.00229541
     135         -1.119308        1.000000        0.00292356        0.00413853
     136         -1.118408        1.000000        0.00263209        0.00234793
     137         -1.117769        1.000000        0.00114059        0.00155206
     138         -1.116570        1.000000        0.00664645        0.00700078
     139         -1.115096        1.000000        0.00294946        0.00207514
     140         -1.114402        1.000000        0.00113192        0.00162599
     141         -1.114039        1.000000        0.00832108        0.00433998
     142         -1.112381        1.000000        0.00164899        0.00128466
     143         -1.111588        1.000000        0.00476150        0.00366843
     144         -1.111356        1.000000        0.00510213        0.00479760
     145         -1.110913        1.000000        0.00604947        0.00318717
     146         -1.109631        1.000000        0.00506788        0.00490207
     147         -1.107338        1.000000        0.00154313        0.00162598
     148         -1.107163        1.000000        0.00290715        0.00176485
     149         -1.106911        1.000000        0.01301923        0.00730390
     150         -1.105904        1.000000        0.00675908        0.00324267
     151         -1.104513        1.000000        0.07662896        0.03600131
     152         -1.103753        1.000000        0.17543250        0.08626876
     153         -1.103233        1.000000        0.00455336        0.00305810
     154         -1.101116        1.000000        0.01964001        0.01460318
     155         -1.099878        1.000000        0.03484255        0.01693786
     156         -1.099527        1.000000        0.04432107        0.03014528
     157         -1.099360        1.000000        0.10396473        0.04706102
     158         -1.097449        1.000000        0.01947745        0.00780059
     159         -1.097246        1.000000        0.03333712        0.01514923
     160         -1.096336        1.000000        0.09361100        0.04247050
     161         -1.095776        1.000000        0.15630584        0.07069444
     162         -1.094258        1.000000        0.04259004        0.01855600
     163         -1.093701        1.000000        0.01684051        0.00885478
     164         -1.093107        1.000000        0.02336105        0.00853808
     165         -1.091600        1.000000        0.00803544        0.00356456
     166         -1.090890        1.000000        0.00865603        0.00540549
     167         -1.090283        1.000000        0.00457717        0.00219779
     168         -1.089378        1.000000        0.00837021        0.00510816
     169         -1.088506        1.000000        0.00672062        0.00346954
     170         -1.086931        1.000000        0.00743649        0.00281665
     171         -1.086367        1.000000        0.00793540        0.00476572
     172         -1.085327        1.000000        0.01219077        0.00527466
     173         -1.084766        1.000000        0.00208974        0.00109340
     174         -1.083961        1.000000        0.00071013        0.00033867
     175         -1.082920        1.000000        0.00529407        0.00279650
     176         -1.081700        1.000000        0.01054467        0.00347153
     177         -1.081031        1.000000        0.00392187        0.00269183
     178         -1.080558        1.000000        0.00726926        0.00390084
     179         -1.080415        1.000000        0.00707952        0.00386999
     180         -1.080047        1.000000        0.01008609        0.00740048
     181         -1.077309        1.000000        0.03712005        0.01187436
     182         -1.076601        1.000000        0.00721268        0.00400357
     183         -1.076342        1.000000        0.01031342        0.00374735
     184         -1.076154        1.000000        0.01684108        0.00590830
     185         -1.075469        1.000000        0.02065687        0.00664707
     186         -1.074904        1.000000        0.00734320        0.00304763
     187         -1.074160        1.000000        0.00799834        0.00359223
     188         -1.073364        1.000000        0.00476070        0.00270222
     189         -1.071841        1.000000        0.04201454        0.01795538
     190         -1.071436        1.000000        0.02130695        0.00931801
     191         -1.070358        1.000000        0.04804687        0.02464049
     192         -1.070160        1.000000        0.09559225        0.04913819
     193         -1.069551        1.000000        0.03064659        0.01691968
     194         -1.069042        1.000000        0.02597506        0.01256228
     195         -1.068018        1.000000        0.03712965        0.01947174
     196         -1.067683        1.000000        0.07200361        0.03814630
     197         -1.067094        1.000000        0.01857457        0.01078044
     198         -1.066200        1.000000        0.01717796        0.00919123
     199         -1.065105        1.000000        0.04382357        0.02525048
     200         -1.064600        1.000000        0.06235079        0.02893334
     201         -1.063825        1.000000        0.11434085        0.05420423
     202         -1.063672        1.000000        0.07717841        0.03783425
     203         -1.062915        1.000000        0.03905440        0.02074602
     204         -1.062259        1.000000        0.00510226        0.00303395
     205         -1.061986        1.000000        0.04700202        0.02244636
     206         -1.060822        1.000000        0.01236073        0.00665856
     207         -1.060230        1.000000        0.03233006        0.02869040
     208         -1.059971        1.000000        0.01597294        0.00764272
     209         -1.059399        1.000000        0.02209365        0.01557882
     210         -1.058798        1.000000        0.01013922        0.00589267
     211         -1.058498        1.000000        0.01923307        0.01198620
     212         -1.057049        1.000000        0.03383650        0.02614497
     213         -1.056896        1.000000        0.04551519        0.03685868
     214         -1.056403        1.000000        0.05354074        0.03054767
     215         -1.056079        1.000000        0.00236381        0.00175937
     216         -1.055624        1.000000        0.02011599        0.01148185
     217         -1.055288        1.000000        0.00628051        0.00442701
     218         -1.054828        1.000000        0.01419091        0.01022067
     219         -1.054413        1.000000        0.01673992        0.01142387
     220         -1.053990        1.000000        0.01136007        0.00523894
     221         -1.053598        1.000000        0.00255521        0.00165883
     222         -1.053387        1.000000        0.00657253        0.00491122
     223         -1.052953        1.000000        0.00203494        0.00112381
     224         -1.052779        1.000000        0.00321912        0.00168962
     225         -1.052376        1.000000        0.00383427        0.00235955
     226         -1.052297        1.000000        0.00102713        0.00096254
     227         -1.051819        1.000000        0.00434730        0.00253030
     228         -1.051536        1.000000        0.03258832        0.01247068
     229         -1.051232        1.000000        0.00522212        0.00270112
     230         -1.050581        1.000000        0.00247485        0.00091571
     231         -1.050140        1.000000        0.00382469        0.00410677
     232         -1.049834        1.000000        0.00139117        0.00058521
     233         -1.049588        1.000000        0.00044553        0.00021195
     234         -1.049506        1.000000        0.00070764        0.00030019
     235         -1.048565        1.000000        0.00167827        0.00149059
     236         -1.048103        1.000000        0.00628307        0.00485749
     237         -1.048023        1.000000        0.01005717        0.00563736
     238         -1.047651        1.000000        0.00320573        0.00197080
     239         -1.047305        1.000000        0.00989960        0.00543212
     240         -1.046707        1.000000        0.00453561        0.00284968
     241         -1.046592        1.000000        0.00341594        0.00268720
     242         -1.046281        1.000000        0.00136640        0.00086227
     243         -1.045974        1.000000        0.02361443        0.01431912
     244         -1.045866        1.000000        0.00207477        0.00117344
     245         -1.045771        1.000000        0.01051323        0.00607835
     246         -1.045301        1.000000        0.02419727        0.01496230
     247         -1.045020        1.000000        0.01390275        0.00491095
     248         -1.043956        1.000000        0.10616314        0.06894199
     249         -1.043818        1.000000        0.01151018        0.00714984
     250         -1.043244        1.000000        0.02608886        0.01816651
     251         -1.043119        1.000000        0.00158408        0.00105982
     252         -1.042993        1.000000        0.01998778        0.01311390
     253         -1.042515        1.000000        0.10341581        0.06550523
     254         -1.041302        1.000000        0.00159964        0.00145624
     255         -1.041116        1.000000        0.00529328        0.00488653
     256         -1.040594        1.000000        0.00235051        0.00172343
     257         -1.040094        1.000000        0.00932050        0.00673192
     258         -1.039599        1.000000        0.00156004        0.00175213
     259         -1.039408        1.000000        0.00433516        0.00437550
     260         -1.038970        1.000000        0.00194693        0.00176737
     261         -1.038561        1.000000        0.00082236        0.00069532
     262         -1.038022        1.000000        0.00015478        0.00010543
     263         -1.037841        1.000000        0.00393109        0.00347106
     264         -1.036991        1.000000        0.00047941        0.00056891
     265         -1.036854        1.000000        0.00670538        0.00469207
     266         -1.035910        1.000000        0.00014441        0.00008015
     267         -1.035115        1.000000        0.00153915        0.00136286
     268         -1.034275        1.000000        0.00046269        0.00024072
     269         -1.033697        1.000000        0.00012376        0.00011480
     270         -1.033444        1.000000        0.04740723        0.02866864
     271         -1.033385        1.000000        0.03293436        0.02028997
     272         -1.033262        1.000000        0.00041635        0.00024939
     273         -1.032346        1.000000        0.09533880        0.05768958
     274         -1.031626        1.000000        0.00029944        0.00021263
     275         -1.030746        1.000000        0.00000055        0.00000085
     276         -1.029780        1.000000        0.00000403        0.00001007
     277         -1.028980        1.000000        0.00000608        0.00000787
     278         -1.027492        1.000000        0.00210773        0.00132842
     279         -1.025795        1.000000        0.00052915        0.00085894
     280         -1.023990        1.000000        0.00142094        0.00090759
     281         -1.022755        1.000000        0.00000771        0.00000523
     282         -1.019871        1.000000        0.00000174        0.00000129
     283         -1.017737        1.000000        0.01520396        0.00907041
     284         -1.012409        1.000000        0.00000431        0.00000498
     285         -1.010522        1.000000        0.00000004        0.00000004
     286         -0.880961        1.000000        0.00017775        0.00327892
     287         -0.861761        1.000000        0.00041130        0.00380043
     288         -0.860652        1.000000        0.00018177        0.00237481
     289         -0.854811        1.000000        0.00018949        0.00234526
     290         -0.853189        1.000000        0.00009221        0.00155827
     291         -0.838407        1.000000        0.00020884        0.00186897
     292         -0.837131        1.000000        0.00033155        0.00212726
     293         -0.835422        1.000000        0.00019128        0.00177653
     294         -0.832873        1.000000        0.00008678        0.00112728
     295         -0.813092        1.000000        0.00018533        0.00137435
     296         -0.811309        1.000000        0.00025703        0.00137802
     297         -0.805633        1.000000        0.00065286        0.00406418
     298         -0.800994        1.000000        0.00055429        0.00312963
     299         -0.798544        1.000000        0.00023234        0.00193270
     300         -0.797176        1.000000        0.00004579        0.00095632
     301         -0.796065        1.000000        0.00033369        0.00158679
     302         -0.795247        1.000000        0.00045406        0.00234831
     303         -0.794465        1.000000        0.00008837        0.00069177
     304         -0.792558        1.000000        0.00013581        0.00076338
     305         -0.791532        1.000000        0.00011503        0.00140760
     306         -0.790931        1.000000        0.00006082        0.00048751
     307         -0.790366        1.000000        0.00015565        0.00095498
     308         -0.787916        1.000000        0.00011774        0.00097034
     309         -0.786681        1.000000        0.00014241        0.00095816
     310         -0.785900        1.000000        0.00010137        0.00087002
     311         -0.785502        1.000000        0.00028862        0.00116619
     312         -0.784837        1.000000        0.00021692        0.00133674
     313         -0.783950        1.000000        0.00004981        0.00065307
     314         -0.783030        1.000000        0.00006889        0.00048784
     315         -0.781274        1.000000        0.00002742        0.00046243
     316         -0.780386        1.000000        0.00012889        0.00073867
     317         -0.779166        1.000000        0.00009381        0.00057481
     318         -0.778511        1.000000        0.00007920        0.00077942
     319         -0.774158        1.000000        0.00005704        0.00035100
     320         -0.771889        1.000000        0.00012540        0.00072481
     321         -0.771572        1.000000        0.00010087        0.00060811
     322         -0.771179        1.000000        0.00007550        0.00044854
     323         -0.768785        1.000000        0.00009044        0.00057953
     324         -0.767359        1.000000        0.00009991        0.00050115
     325         -0.766584        1.000000        0.00002835        0.00022006
     326         -0.766329        1.000000        0.00002814        0.00020701
     327         -0.765063        1.000000        0.00024292        0.00105771
     328         -0.764345        1.000000        0.00016669        0.00073237
     329         -0.763991        1.000000        0.00005093        0.00029826
     330         -0.763040        1.000000        0.00008077        0.00039103
     331         -0.762394        1.000000        0.00006159        0.00025705
     332         -0.761901        1.000000        0.00008901        0.00040452
     333         -0.761725        1.000000        0.00004700        0.00016525
     334         -0.760117        1.000000        0.00011187        0.00038483
     335         -0.759732        1.000000        0.00010413        0.00064109
     336         -0.759057        1.000000        0.00006454        0.00048377
     337         -0.757838        1.000000        0.00007393        0.00032956
     338         -0.754831        1.000000        0.00008031        0.00039056
     339         -0.753708        1.000000        0.00005097        0.00024689
     340         -0.753375        1.000000        0.00005676        0.00039548
     341         -0.751671        1.000000        0.00003769        0.00017061
     342         -0.750037        1.000000        0.00004809        0.00017292
     343         -0.749186        1.000000        0.00005836        0.00025249
     344         -0.748889        1.000000        0.00008900        0.00038600
     345         -0.746995        1.000000        0.00005376        0.00026604
     346         -0.718177        1.000000        0.00002418        0.00004518
     347         -0.705802        1.000000        0.00004917        0.00009230
     348         -0.703896        1.000000        0.00001175        0.00002695
     349         -0.699323        1.000000        0.00011472        0.00015242
     350         -0.697252        1.000000        0.00003140        0.00004053
     351         -0.695572        1.000000        0.00005574        0.00009393
     352         -0.690990        1.000000        0.00008849        0.00010805
     353         -0.687608        1.000000        0.00016584        0.00025701
     354         -0.686710        1.000000        0.00009914        0.00013833
     355         -0.685600        1.000000        0.00011244        0.00019068
     356         -0.681933        1.000000        0.00007314        0.00011881
     357         -0.681818        1.000000        0.00006675        0.00015571
     358         -0.680598        1.000000        0.00014514        0.00021090
     359         -0.677631        1.000000        0.00013294        0.00011052
     360         -0.676231        1.000000        0.00006432        0.00013557
     361         -0.675184        1.000000        0.00023467        0.00014715
     362         -0.673914        1.000000        0.00025237        0.00021215
     363         -0.670819        1.000000        0.00027405        0.00025272
     364         -0.668535        1.000000        0.00014902        0.00019787
     365         -0.666745        1.000000        0.00010106        0.00012992
     366         -0.665099        1.000000        0.00033937        0.00028393
     367         -0.664004        1.000000        0.00019848        0.00014297
     368         -0.662322        1.000000        0.00021374        0.00027283
     369         -0.662102        1.000000        0.00012481        0.00014585
     370         -0.660198        1.000000        0.00007454        0.00012459
     371         -0.658748        1.000000        0.00013085        0.00016387
     372         -0.658127        1.000000        0.00044165        0.00033492
     373         -0.656827        1.000000        0.00026972        0.00017362
     374         -0.654564        1.000000        0.00024306        0.00019125
     375         -0.653081        1.000000        0.00010351        0.00010529
     376         -0.649207        1.000000        0.00013007        0.00016680
     377         -0.648953        1.000000        0.00014521        0.00012646