# Projected DOS for list 192 of 1 atoms, at iteration step i = 0, E(Fermi) =    -0.237583 a.u.
#     MO Eigenvalue [a.u.]      Occupation                 s                 p                 d
       1         -3.115895        1.000000        0.00000000        0.00000000        0.00000000
       2         -3.112717        1.000000        0.00000000        0.00000000        0.00000000
       3         -3.112103        1.000000        0.00000000        0.00000000        0.00000000
       4         -3.111180        1.000000        0.00000000        0.00000000        0.00000000
       5         -3.110810        1.000000        0.00000000        0.00000000        0.00000000
       6         -3.110575        1.000000        0.00000000        0.00000000        0.00000000
       7         -3.110067        1.000000        0.00000000        0.00000000        0.00000000
       8         -3.109817        1.000000        0.00000000        0.00000000        0.00000000
       9         -3.109660        1.000000        0.00000000        0.00000000        0.00000000
      10         -3.108831        1.000000        0.00000000        0.00000000        0.00000000
      11         -3.108678        1.000000        0.00000000        0.00000000        0.00000000
      12         -3.108578        1.000000        0.00000000        0.00000000        0.00000000
      13         -3.108350        1.000000        0.00000000        0.00000000        0.00000000
      14         -3.108163        1.000000        0.00000000        0.00000000        0.00000000
      15         -3.107948        1.000000        0.00000000        0.00000000        0.00000000
      16         -3.107865        1.000000        0.00000000        0.00000000        0.00000000
      17         -3.107703        1.000000        0.00000000        0.00000000        0.00000000
      18         -3.107683        1.000000        0.00000000        0.00000000        0.00000000
      19         -3.107641        1.000000        0.00000000        0.00000000        0.00000000
      20         -3.107604        1.000000        0.00000000        0.00000000        0.00000000
      21         -3.107402        1.000000        0.00000000        0.00000000        0.00000000
      22         -3.107115        1.000000        0.00000000        0.00000000        0.00000000
      23         -3.107013        1.000000        0.00000000        0.00000000        0.00000000
      24         -3.106750        1.000000        0.00000000        0.00000000        0.00000000
      25         -3.106619        1.000000        0.00000000        0.00000000        0.00000000
      26         -3.106567        1.000000        0.00000000        0.00000000        0.00000000
      27         -3.106546        1.000000        0.00000000        0.00000000        0.00000000
      28         -3.106258        1.000000        0.00000000        0.00000000        0.00000000
      29         -3.106103        1.000000        0.00000000        0.00000000        0.00000000
      30         -3.104674        1.000000        0.00000000        0.00000000        0.00000000
      31         -1.775522        1.000000        0.00000000        0.00000000        0.00000000
      32         -1.773964        1.000000        0.00000000        0.00000000        0.00000000
      33         -1.773454        1.000000        0.00000000        0.00000000        0.00000000
      34         -1.773008        1.000000        0.00000000        0.00000000        0.00000000
      35         -1.772581        1.000000        0.00000000        0.00000000        0.00000000
      36         -1.772213        1.000000        0.00000000        0.00000000        0.00000000
      37         -1.771852        1.000000        0.00000000        0.00000000        0.00000000
      38         -1.771444        1.000000        0.00000000        0.00000000        0.00000000
      39         -1.771233        1.000000        0.00000000        0.00000000        0.00000000
      40         -1.770977        1.000000        0.00000000        0.00000000        0.00000000
      41         -1.770760        1.000000        0.00000000        0.00000000        0.00000000
      42         -1.770111        1.000000        0.00000000        0.00000000        0.00000000
      43         -1.770034        1.000000        0.00000000        0.00000000        0.00000000
      44         -1.769495        1.000000        0.00000000        0.00000000        0.00000000
      45         -1.769421        1.000000        0.00000000        0.00000000        0.00000000
      46         -1.769063        1.000000        0.00000000        0.00000000        0.00000000
      47         -1.768532        1.000000        0.00000000        0.00000000        0.00000000
      48         -1.768412        1.000000        0.00000000        0.00000000        0.00000000
      49         -1.767811        1.000000        0.00000000        0.00000000        0.00000000
      50         -1.767614        1.000000        0.00000000        0.00000000        0.00000000
      51         -1.767477        1.000000        0.00000000        0.00000000        0.00000000
      52         -1.765531        1.000000        0.00000000        0.00000000        0.00000000
      53         -1.765088        1.000000        0.00000000        0.00000000        0.00000000
      54         -1.764557        1.000000        0.00000000        0.00000000        0.00000000
      55         -1.763772        1.000000        0.00000000        0.00000000        0.00000000
      56         -1.763328        1.000000        0.00000000        0.00000000        0.00000000
      57         -1.762925        1.000000        0.00000000        0.00000000        0.00000000
      58         -1.762506        1.000000        0.00000000        0.00000000        0.00000000
      59         -1.762119        1.000000        0.00000000        0.00000000        0.00000000
      60         -1.762053        1.000000        0.00000000        0.00000000        0.00000000
      61         -1.761895        1.000000        0.00000000        0.00000000        0.00000000
      62         -1.761602        1.000000        0.00000000        0.00000000        0.00000000
      63         -1.761509        1.000000        0.00000000        0.00000000        0.00000000
      64         -1.761377        1.000000        0.00000000        0.00000000        0.00000000
      65         -1.761171        1.000000        0.00000000        0.00000000        0.00000000
      66         -1.760998        1.000000        0.00000000        0.00000000        0.00000000
      67         -1.760877        1.000000        0.00000000        0.00000000        0.00000000
      68         -1.760806        1.000000        0.00000000        0.00000000        0.00000000
      69         -1.760684        1.000000        0.00000000        0.00000000        0.00000000
      70         -1.760645        1.000000        0.00000000        0.00000000        0.00000000
      71         -1.760442        1.000000        0.00000000        0.00000000        0.00000000
      72         -1.760098        1.000000        0.00000000        0.00000000        0.00000000
      73         -1.759962        1.000000        0.00000000        0.00000000        0.00000000
      74         -1.759824        1.000000        0.00000000        0.00000000        0.00000000
      75         -1.759787        1.000000        0.00000000        0.00000000        0.00000000
      76         -1.759638        1.000000        0.00000000        0.00000000        0.00000000
      77         -1.759601        1.000000        0.00000000        0.00000000        0.00000000
      78         -1.759512        1.000000        0.00000000        0.00000000        0.00000000
      79         -1.759406        1.000000        0.00000000        0.00000000        0.00000000
      80         -1.759287        1.000000        0.00000000        0.00000000        0.00000000
      81         -1.759176        1.000000        0.00000000        0.00000000        0.00000000
      82         -1.758872        1.000000        0.00000000        0.00000000        0.00000000
      83         -1.758781        1.000000        0.00000000        0.00000000        0.00000000
      84         -1.758726        1.000000        0.00000000        0.00000000        0.00000000
      85         -1.758559        1.000000        0.00000000        0.00000000        0.00000000
      86         -1.758378        1.000000        0.00000000        0.00000000        0.00000000
      87         -1.758294        1.000000        0.00000000        0.00000000        0.00000000
      88         -1.758087        1.000000        0.00000000        0.00000000        0.00000000
      89         -1.757987        1.000000        0.00000000        0.00000000        0.00000000
      90         -1.757734        1.000000        0.00000000        0.00000000        0.00000000
      91         -1.757649        1.000000        0.00000000        0.00000000        0.00000000
      92         -1.757529        1.000000        0.00000000        0.00000000        0.00000000
      93         -1.757404        1.000000        0.00000000        0.00000000        0.00000000
      94         -1.757324        1.000000        0.00000000        0.00000000        0.00000000
      95         -1.757187        1.000000        0.00000000        0.00000000        0.00000000
      96         -1.757137        1.000000        0.00000000        0.00000000        0.00000000
      97         -1.756770        1.000000        0.00000000        0.00000000        0.00000000
      98         -1.756598        1.000000        0.00000000        0.00000000        0.00000000
      99         -1.756513        1.000000        0.00000000        0.00000000        0.00000000
     100         -1.756186        1.000000        0.00000000        0.00000000        0.00000000
     101         -1.755847        1.000000        0.00000000        0.00000000        0.00000000
     102         -1.755716        1.000000        0.00000000        0.00000000        0.00000000
     103         -1.755306        1.000000        0.00000000        0.00000000        0.00000000
     104         -1.755052        1.000000        0.00000000        0.00000000        0.00000000
     105         -1.754765        1.000000        0.00000000        0.00000000        0.00000000
     106         -1.754094        1.000000        0.00000000        0.00000000        0.00000000
     107         -1.753681        1.000000        0.00000000        0.00000000        0.00000000
     108         -1.753548        1.000000        0.00000000        0.00000000        0.00000000
     109         -1.753256        1.000000        0.00000000        0.00000000        0.00000000
     110         -1.752675        1.000000        0.00000000        0.00000000        0.00000000
     111         -1.752502        1.000000        0.00000000        0.00000000        0.00000000
     112         -1.752253        1.000000        0.00000000        0.00000000        0.00000000
     113         -1.751643        1.000000        0.00000000        0.00000000        0.00000000
     114         -1.751317        1.000000        0.00000000        0.00000000        0.00000000
     115         -1.749193        1.000000        0.00000000        0.00000000        0.00000000
     116         -1.748137        1.000000        0.00000000        0.00000000        0.00000000
     117         -1.747283        1.000000        0.00000000        0.00000000        0.00000000
     118         -1.745962        1.000000        0.00000000        0.00000000        0.00000000
     119         -1.745880        1.000000        0.00000000        0.00000000        0.00000000
     120         -1.744143        1.000000        0.00000000        0.00000000        0.00000000
     121         -1.145318        1.000000        0.00058559        0.00009582        0.00001923
     122         -1.141162        1.000000        0.00007145        0.00010198        0.00000684
     123         -1.135518        1.000000        0.00350382        0.00086844        0.00012764
     124         -1.134356        1.000000        0.00004710        0.00003961        0.00000602
     125         -1.132797        1.000000        0.00078718        0.00005579        0.00002895
     126         -1.131675        1.000000        0.00088840        0.00027488        0.00003324
     127         -1.130657        1.000000        0.00043109        0.00010392        0.00005214
     128         -1.129329        1.000000        0.00320254        0.00101516        0.00012956
     129         -1.127805        1.000000        0.00163025        0.00017834        0.00005935
     130         -1.126970        1.000000        0.00042650        0.00005589        0.00001437
     131         -1.125100        1.000000        0.00135980        0.00006355        0.00006357
     132         -1.124640        1.000000        0.00087219        0.00018276        0.00003120
     133         -1.122028        1.000000        0.00064286        0.00012374        0.00001565
     134         -1.120887        1.000000        0.00030368        0.00002431        0.00001353
     135         -1.119308        1.000000        0.00521273        0.00024427        0.00011252
     136         -1.118408        1.000000        0.00000643        0.00016212        0.00001031
     137         -1.117769        1.000000        0.00669801        0.00031165        0.00015153
     138         -1.116570        1.000000        0.00445148        0.00028950        0.00012166
     139         -1.115096        1.000000        0.00010943        0.00006155        0.00001405
     140         -1.114402        1.000000        0.00448532        0.00042630        0.00011643
     141         -1.114039        1.000000        0.00199056        0.00139042        0.00008990
     142         -1.112381        1.000000        0.01103380        0.00070259        0.00026077
     143         -1.111588        1.000000        0.00045140        0.00004217        0.00001609
     144         -1.111356        1.000000        0.00000226        0.00119722        0.00004264
     145         -1.110913        1.000000        0.00002907        0.00000318        0.00000713
     146         -1.109631        1.000000        0.00312142        0.00011459        0.00008157
     147         -1.107338        1.000000        0.00000184        0.00022940        0.00002872
     148         -1.107163        1.000000        0.00056142        0.00003869        0.00001380
     149         -1.106911        1.000000        0.00596448        0.00036484        0.00012530
     150         -1.105904        1.000000        0.00543952        0.00039266        0.00006616
     151         -1.104513        1.000000        0.00114230        0.00155148        0.00003103
     152         -1.103753        1.000000        0.00008298        0.00040113        0.00000608
     153         -1.103233        1.000000        0.00011901        0.00059177        0.00008910
     154         -1.101116        1.000000        0.00039562        0.00002765        0.00002632
     155         -1.099878        1.000000        0.00003000        0.00002095        0.00001006
     156         -1.099527        1.000000        0.00405941        0.00027984        0.00007247
     157         -1.099360        1.000000        0.00284430        0.00030970        0.00003070
     158         -1.097449        1.000000        0.00032816        0.00051006        0.00000853
     159         -1.097246        1.000000        0.00062804        0.00005198        0.00000885
     160         -1.096336        1.000000        0.00007378        0.00006498        0.00000896
     161         -1.095776        1.000000        0.00006148        0.00001865        0.00000263
     162         -1.094258        1.000000        0.00115853        0.00005811        0.00001694
     163         -1.093701        1.000000        0.00125392        0.00012974        0.00001025
     164         -1.093107        1.000000        0.00229568        0.00046811        0.00004793
     165         -1.091600        1.000000        0.00000115        0.00005441        0.00000762
     166         -1.090890        1.000000        0.00614163        0.00011628        0.00011871
     167         -1.090283        1.000000        0.01183976        0.00089188        0.00013658
     168         -1.089378        1.000000        0.00011049        0.00001268        0.00001329
     169         -1.088506        1.000000        0.00046647        0.00000627        0.00001422
     170         -1.086931        1.000000        0.00047293        0.00131843        0.00010176
     171         -1.086367        1.000000        0.00714719        0.00078859        0.00007324
     172         -1.085327        1.000000        0.00940009        0.00103959        0.00004453
     173         -1.084766        1.000000        0.00058981        0.00020764        0.00003261
     174         -1.083961        1.000000        0.00397225        0.00014977        0.00004255
     175         -1.082920        1.000000        0.00074535        0.00013843        0.00002228
     176         -1.081700        1.000000        0.00055188        0.00007673        0.00005932
     177         -1.081031        1.000000        0.00189042        0.00033000        0.00002832
     178         -1.080558        1.000000        0.00317186        0.00022807        0.00001326
     179         -1.080415        1.000000        0.00467314        0.00067074        0.00017773
     180         -1.080047        1.000000        0.00151517        0.00006237        0.00003122
     181         -1.077309        1.000000        0.00038040        0.00022331        0.00009636
     182         -1.076601        1.000000        0.00456383        0.00015976        0.00004445
     183         -1.076342        1.000000        0.00433647        0.00034506        0.00005261
     184         -1.076154        1.000000        0.00058236        0.00001750        0.00000917
     185         -1.075469        1.000000        0.00257881        0.00085740        0.00006942
     186         -1.074904        1.000000        0.00291066        0.00009243        0.00001455
     187         -1.074160        1.000000        0.00002606        0.00007497        0.00002289
     188         -1.073364        1.000000        0.00009064        0.00004029        0.00000546
     189         -1.071841        1.000000        0.00297616        0.00006858        0.00002834
     190         -1.071436        1.000000        0.00033174        0.00009186        0.00000756
     191         -1.070358        1.000000        0.00000072        0.00013678        0.00006262
     192         -1.070160        1.000000        0.00005672        0.00013047        0.00002802
     193         -1.069551        1.000000        0.00239202        0.00014677        0.00002663
     194         -1.069042        1.000000        0.00258605        0.00047085        0.00004173
     195         -1.068018        1.000000        0.00110261        0.00019956        0.00011249
     196         -1.067683        1.000000        0.00103305        0.00008544        0.00001622
     197         -1.067094        1.000000        0.00191644        0.00012116        0.00002795
     198         -1.066200        1.000000        0.00611331        0.00038258        0.00005025
     199         -1.065105        1.000000        0.00037866        0.00003148        0.00000462
     200         -1.064600        1.000000        0.00103164        0.00006208        0.00006439
     201         -1.063825        1.000000        0.00015130        0.00001441        0.00001976
     202         -1.063672        1.000000        0.00034401        0.00004612        0.00000808
     203         -1.062915        1.000000        0.00008087        0.00005928        0.00004217
     204         -1.062259        1.000000        0.00146656        0.00002435        0.00001872
     205         -1.061986        1.000000        0.00056775        0.00007276        0.00006150
     206         -1.060822        1.000000        0.00112623        0.00005621        0.00003446
     207         -1.060230        1.000000        0.00032276        0.00005578        0.00002264
     208         -1.059971        1.000000        0.00004998        0.00004123        0.00003779
     209         -1.059399        1.000000        0.00001899        0.00001168        0.00001182
     210         -1.058798        1.000000        0.00006300        0.00000300        0.00002810
     211         -1.058498        1.000000        0.00000774        0.00003100        0.00001003
     212         -1.057049        1.000000        0.00013630        0.00001217        0.00001015
     213         -1.056896        1.000000        0.00000960        0.00001450        0.00000612
     214         -1.056403        1.000000        0.00047815        0.00001139        0.00000263
     215         -1.056079        1.000000        0.00000855        0.00001789        0.00002915
     216         -1.055624        1.000000        0.00032955        0.00001009        0.00000965
     217         -1.055288        1.000000        0.00036120        0.00002904        0.00001376
     218         -1.054828        1.000000        0.00019119        0.00001037        0.00001828
     219         -1.054413        1.000000        0.00037105        0.00001573        0.00000274
     220         -1.053990        1.000000        0.00000056        0.00001667        0.00000508
     221         -1.053598        1.000000        0.00014300        0.00001359        0.00000396
     222         -1.053387        1.000000        0.00013067        0.00003686        0.00003673
     223         -1.052953        1.000000        0.00009925        0.00009291        0.00009251
     224         -1.052779        1.000000        0.00157801        0.00006772        0.00005719
     225         -1.052376        1.000000        0.00015285        0.00000410        0.00000194
     226         -1.052297        1.000000        0.00011518        0.00000734        0.00001624
     227         -1.051819        1.000000        0.00069721        0.00005436        0.00007353
     228         -1.051536        1.000000        0.00007002        0.00000825        0.00000423
     229         -1.051232        1.000000        0.00012630        0.00013043        0.00009324
     230         -1.050581        1.000000        0.00013695        0.00002703        0.00003372
     231         -1.050140        1.000000        0.00024841        0.00000942        0.00002537
     232         -1.049834        1.000000        0.00135993        0.00001534        0.00005538
     233         -1.049588        1.000000        0.00054230        0.00004229        0.00003047
     234         -1.049506        1.000000        0.00007074        0.00010017        0.00005319
     235         -1.048565        1.000000        0.00022461        0.00006245        0.00005573
     236         -1.048103        1.000000        0.00019803        0.00005801        0.00003292
     237         -1.048023        1.000000        0.00015539        0.00002524        0.00006033
     238         -1.047651        1.000000        0.00038107        0.00004283        0.00005968
     239         -1.047305        1.000000        0.00035180        0.00000689        0.00001212
     240         -1.046707        1.000000        0.00104163        0.00002531        0.00001610
     241         -1.046592        1.000000        0.00347616        0.00003577        0.00003603
     242         -1.046281        1.000000        0.00574114        0.00007671        0.00002474
     243         -1.045974        1.000000        0.00076473        0.00001506        0.00000601
     244         -1.045866        1.000000        0.03529705        0.00037272        0.00011899
     245         -1.045771        1.000000        0.00308982        0.00003737        0.00001261
     246         -1.045301        1.000000        0.00023026        0.00000768        0.00000279
     247         -1.045020        1.000000        0.00791072        0.00007316        0.00001947
     248         -1.043956        1.000000        0.00078989        0.00000981        0.00000923
     249         -1.043818        1.000000        0.00144253        0.00001770        0.00001475
     250         -1.043244        1.000000        0.01372359        0.00012498        0.00002357
     251         -1.043119        1.000000        0.00006028        0.00000382        0.00000258
     252         -1.042993        1.000000        0.00268742        0.00003095        0.00000936
     253         -1.042515        1.000000        0.00000012        0.00000167        0.00000136
     254         -1.041302        1.000000        0.00057834        0.00001459        0.00000420
     255         -1.041116        1.000000        0.00010245        0.00001247        0.00001910
     256         -1.040594        1.000000        0.00082655        0.00009271        0.00009323
     257         -1.040094        1.000000        0.00379078        0.00005111        0.00004076
     258         -1.039599        1.000000        0.05860427        0.00055334        0.00021463
     259         -1.039408        1.000000        0.01795470        0.00021593        0.00001480
     260         -1.038970        1.000000        0.03935511        0.00057638        0.00008175
     261         -1.038561        1.000000        0.00766337        0.00007486        0.00000222
     262         -1.038022        1.000000        0.03888782        0.00051047        0.00000865
     263         -1.037841        1.000000        0.00511010        0.00005255        0.00000808
     264         -1.036991        1.000000        0.10372092        0.00124584        0.00004453
     265         -1.036854        1.000000        0.01415259        0.00020109        0.00000567
     266         -1.035910        1.000000        0.00042353        0.00001098        0.00000216
     267         -1.035115        1.000000        0.00581812        0.00022155        0.00021904
     268         -1.034275        1.000000        0.00023623        0.00002899        0.00000668
     269         -1.033697        1.000000        0.00173034        0.00010349        0.00008911
     270         -1.033444        1.000000        0.00088988        0.00001609        0.00000454
     271         -1.033385        1.000000        0.00000765        0.00002495        0.00001994
     272         -1.033262        1.000000        0.00099741        0.00002925        0.00003093
     273         -1.032346        1.000000        0.00011875        0.00000164        0.00000034
     274         -1.031626        1.000000        0.00027812        0.00000953        0.00000610
     275         -1.030746        1.000000        0.00012954        0.00000190        0.00000027
     276         -1.029780        1.000000        0.00130827        0.00003164        0.00001199
     277         -1.028980        1.000000        0.00018145        0.00000382        0.00000217
     278         -1.027492        1.000000        0.00000744        0.00000019        0.00000008
     279         -1.025795        1.000000        0.00000501        0.00000009        0.00000004
     280         -1.023990        1.000000        0.00000266        0.00000008        0.00000002
     281         -1.022755        1.000000        0.00000840        0.00000014        0.00000003
     282         -1.019871        1.000000        0.00198204        0.00010982        0.00001569
     283         -1.017737        1.000000        0.00000005        0.00000009        0.00000002
     284         -1.012409        1.000000        0.00030773        0.00002266        0.00000898
     285         -1.010522        1.000000        0.00000059        0.00000003        0.00000004
     286         -0.880961        1.000000        0.00000000        0.00000000        0.00000000
     287         -0.861761        1.000000        0.00000000        0.00000000        0.00000000
     288         -0.860652        1.000000        0.00000000        0.00000000        0.00000000
     289         -0.854811        1.000000        0.00000000        0.00000000        0.00000000
     290         -0.853189        1.000000        0.00000000        0.00000000        0.00000000
     291         -0.838407        1.000000        0.00000000        0.00000000        0.00000000
     292         -0.837131        1.000000        0.00000000        0.00000000        0.00000000
     293         -0.835422        1.000000        0.00000000        0.00000000        0.00000000
     294         -0.832873        1.000000        0.00000000        0.00000000        0.00000000
     295         -0.813092        1.000000        0.00000000        0.00000000        0.00000000
     296         -0.811309        1.000000        0.00000000        0.00000000        0.00000000
     297         -0.805633        1.000000        0.00000000        0.00000000        0.00000000
     298         -0.800994        1.000000        0.00000000        0.00000000        0.00000000
     299         -0.798544        1.000000        0.00000000        0.00000000        0.00000000
     300         -0.797176        1.000000        0.00000000        0.00000000        0.00000000
     301         -0.796065        1.000000        0.00000000        0.00000000        0.00000000
     302         -0.795247        1.000000        0.00000000        0.00000000        0.00000000
     303         -0.794465        1.000000        0.00000000        0.00000000        0.00000000
     304         -0.792558        1.000000        0.00000000        0.00000000        0.00000000
     305         -0.791532        1.000000        0.00000000        0.00000000        0.00000000
     306         -0.790931        1.000000        0.00000000        0.00000000        0.00000000
     307         -0.790366        1.000000        0.00000000        0.00000000        0.00000000