# Projected DOS for list 271 of 1 atoms, at iteration step i = 0, E(Fermi) =    -0.237583 a.u.
#     MO Eigenvalue [a.u.]      Occupation                 s                 p                 d
       1         -3.115895        1.000000        0.00000000        0.00000000        0.00000000
       2         -3.112717        1.000000        0.00000000        0.00000010        0.00000004
       3         -3.112103        1.000000        0.00000003        0.00000001        0.00000000
       4         -3.111180        1.000000        0.00000000        0.00000000        0.00000000
       5         -3.110810        1.000000        0.00000005        0.00000010        0.00000002
       6         -3.110575        1.000000        0.00000001        0.00000045        0.00000009
       7         -3.110067        1.000000        0.00000000        0.00000002        0.00000001
       8         -3.109817        1.000000        0.00000001        0.00000002        0.00000001
       9         -3.109660        1.000000        0.00000002        0.00000001        0.00000000
      10         -3.108831        1.000000        0.00000001        0.00000002        0.00000001
      11         -3.108678        1.000000        0.00000003        0.00000013        0.00000004
      12         -3.108578        1.000000        0.00000000        0.00000010        0.00000002
      13         -3.108350        1.000000        0.00000003        0.00000002        0.00000000
      14         -3.108163        1.000000        0.00000001        0.00000003        0.00000002
      15         -3.107948        1.000000        0.00000002        0.00000007        0.00000001
      16         -3.107865        1.000000        0.00000000        0.00000010        0.00000003
      17         -3.107703        1.000000        0.00000002        0.00000003        0.00000001
      18         -3.107683        1.000000        0.00000000        0.00000001        0.00000000
      19         -3.107641        1.000000        0.00000001        0.00000000        0.00000000
      20         -3.107604        1.000000        0.00000003        0.00000003        0.00000001
      21         -3.107402        1.000000        0.00000000        0.00000001        0.00000000
      22         -3.107115        1.000000        0.00000000        0.00000001        0.00000000
      23         -3.107013        1.000000        0.00000000        0.00000000        0.00000000
      24         -3.106750        1.000000        0.00000002        0.00000019        0.00000004
      25         -3.106619        1.000000        0.00000001        0.00000004        0.00000001
      26         -3.106567        1.000000        0.00000001        0.00000001        0.00000000
      27         -3.106546        1.000000        0.00000004        0.00000002        0.00000001
      28         -3.106258        1.000000        0.00000000        0.00000000        0.00000000
      29         -3.106103        1.000000        0.00000000        0.00000000        0.00000000
      30         -3.104674        1.000000        0.00000000        0.00000001        0.00000000
      31         -1.775522        1.000000        0.00000000        0.00000001        0.00000000
      32         -1.773964        1.000000        0.00000000        0.00000000        0.00000000
      33         -1.773454        1.000000        0.00000000        0.00000000        0.00000000
      34         -1.773008        1.000000        0.00000000        0.00000000        0.00000000
      35         -1.772581        1.000000        0.00000000        0.00000001        0.00000000
      36         -1.772213        1.000000        0.00000000        0.00000001        0.00000000
      37         -1.771852        1.000000        0.00000001        0.00000004        0.00000001
      38         -1.771444        1.000000        0.00000000        0.00000003        0.00000000
      39         -1.771233        1.000000        0.00000000        0.00000002        0.00000000
      40         -1.770977        1.000000        0.00000000        0.00000002        0.00000000
      41         -1.770760        1.000000        0.00000000        0.00000005        0.00000001
      42         -1.770111        1.000000        0.00000000        0.00000002        0.00000000
      43         -1.770034        1.000000        0.00000000        0.00000001        0.00000000
      44         -1.769495        1.000000        0.00000000        0.00000001        0.00000000
      45         -1.769421        1.000000        0.00000000        0.00000000        0.00000000
      46         -1.769063        1.000000        0.00000000        0.00000000        0.00000000
      47         -1.768532        1.000000        0.00000000        0.00000001        0.00000000
      48         -1.768412        1.000000        0.00000000        0.00000005        0.00000001
      49         -1.767811        1.000000        0.00000000        0.00000000        0.00000000
      50         -1.767614        1.000000        0.00000000        0.00000000        0.00000000
      51         -1.767477        1.000000        0.00000000        0.00000001        0.00000000
      52         -1.765531        1.000000        0.00000000        0.00000000        0.00000000
      53         -1.765088        1.000000        0.00000000        0.00000000        0.00000000
      54         -1.764557        1.000000        0.00000000        0.00000000        0.00000000
      55         -1.763772        1.000000        0.00000000        0.00000000        0.00000000
      56         -1.763328        1.000000        0.00000000        0.00000003        0.00000000
      57         -1.762925        1.000000        0.00000000        0.00000001        0.00000000
      58         -1.762506        1.000000        0.00000000        0.00000000        0.00000000
      59         -1.762119        1.000000        0.00000000        0.00000001        0.00000000
      60         -1.762053        1.000000        0.00000000        0.00000000        0.00000000
      61         -1.761895        1.000000        0.00000000        0.00000000        0.00000000
      62         -1.761602        1.000000        0.00000000        0.00000000        0.00000000
      63         -1.761509        1.000000        0.00000000        0.00000001        0.00000000
      64         -1.761377        1.000000        0.00000000        0.00000003        0.00000000
      65         -1.761171        1.000000        0.00000000        0.00000001        0.00000000
      66         -1.760998        1.000000        0.00000000        0.00000001        0.00000000
      67         -1.760877        1.000000        0.00000000        0.00000000        0.00000000
      68         -1.760806        1.000000        0.00000000        0.00000000        0.00000000
      69         -1.760684        1.000000        0.00000000        0.00000000        0.00000000
      70         -1.760645        1.000000        0.00000000        0.00000000        0.00000000
      71         -1.760442        1.000000        0.00000000        0.00000000        0.00000000
      72         -1.760098        1.000000        0.00000000        0.00000002        0.00000000
      73         -1.759962        1.000000        0.00000000        0.00000000        0.00000000
      74         -1.759824        1.000000        0.00000000        0.00000001        0.00000000
      75         -1.759787        1.000000        0.00000000        0.00000001        0.00000000
      76         -1.759638        1.000000        0.00000000        0.00000000        0.00000000
      77         -1.759601        1.000000        0.00000000        0.00000003        0.00000000
      78         -1.759512        1.000000        0.00000000        0.00000000        0.00000001
      79         -1.759406        1.000000        0.00000000        0.00000000        0.00000000
      80         -1.759287        1.000000        0.00000000        0.00000001        0.00000000
      81         -1.759176        1.000000        0.00000000        0.00000000        0.00000000
      82         -1.758872        1.000000        0.00000000        0.00000000        0.00000000
      83         -1.758781        1.000000        0.00000000        0.00000000        0.00000000
      84         -1.758726        1.000000        0.00000000        0.00000001        0.00000000
      85         -1.758559        1.000000        0.00000000        0.00000001        0.00000000
      86         -1.758378        1.000000        0.00000000        0.00000001        0.00000000
      87         -1.758294        1.000000        0.00000000        0.00000000        0.00000000
      88         -1.758087        1.000000        0.00000000        0.00000000        0.00000001
      89         -1.757987        1.000000        0.00000000        0.00000001        0.00000001
      90         -1.757734        1.000000        0.00000000        0.00000001        0.00000000
      91         -1.757649        1.000000        0.00000000        0.00000001        0.00000000
      92         -1.757529        1.000000        0.00000000        0.00000000        0.00000000
      93         -1.757404        1.000000        0.00000000        0.00000000        0.00000000
      94         -1.757324        1.000000        0.00000000        0.00000000        0.00000000
      95         -1.757187        1.000000        0.00000000        0.00000001        0.00000000
      96         -1.757137        1.000000        0.00000000        0.00000000        0.00000000
      97         -1.756770        1.000000        0.00000000        0.00000000        0.00000000
      98         -1.756598        1.000000        0.00000000        0.00000000        0.00000000
      99         -1.756513        1.000000        0.00000000        0.00000000        0.00000000
     100         -1.756186        1.000000        0.00000000        0.00000000        0.00000000
     101         -1.755847        1.000000        0.00000000        0.00000000        0.00000000
     102         -1.755716        1.000000        0.00000000        0.00000001        0.00000000
     103         -1.755306        1.000000        0.00000000        0.00000000        0.00000000
     104         -1.755052        1.000000        0.00000000        0.00000000        0.00000000
     105         -1.754765        1.000000        0.00000000        0.00000000        0.00000000
     106         -1.754094        1.000000        0.00000000        0.00000000        0.00000000
     107         -1.753681        1.000000        0.00000000        0.00000000        0.00000000
     108         -1.753548        1.000000        0.00000000        0.00000001        0.00000000
     109         -1.753256        1.000000        0.00000000        0.00000000        0.00000000
     110         -1.752675        1.000000        0.00000000        0.00000000        0.00000000
     111         -1.752502        1.000000        0.00000000        0.00000001        0.00000000
     112         -1.752253        1.000000        0.00000000        0.00000000        0.00000000
     113         -1.751643        1.000000        0.00000000        0.00000000        0.00000000
     114         -1.751317        1.000000        0.00000000        0.00000000        0.00000000
     115         -1.749193        1.000000        0.00000000        0.00000000        0.00000000
     116         -1.748137        1.000000        0.00000000        0.00000000        0.00000000
     117         -1.747283        1.000000        0.00000000        0.00000000        0.00000000
     118         -1.745962        1.000000        0.00000000        0.00000000        0.00000000
     119         -1.745880        1.000000        0.00000000        0.00000000        0.00000000
     120         -1.744143        1.000000        0.00000000        0.00000000        0.00000000
     121         -1.145318        1.000000        0.00002833        0.00001899        0.00000242
     122         -1.141162        1.000000        0.00000035        0.00000048        0.00000013
     123         -1.135518        1.000000        0.00004622        0.00002032        0.00000363
     124         -1.134356        1.000000        0.00001842        0.00000476        0.00000094
     125         -1.132797        1.000000        0.00000155        0.00000179        0.00000129
     126         -1.131675        1.000000        0.00001443        0.00001182        0.00000169
     127         -1.130657        1.000000        0.00001214        0.00000344        0.00000080
     128         -1.129329        1.000000        0.00001850        0.00002609        0.00000275
     129         -1.127805        1.000000        0.00003875        0.00000932        0.00000319
     130         -1.126970        1.000000        0.00017748        0.00008057        0.00001023
     131         -1.125100        1.000000        0.00001002        0.00000999        0.00000112
     132         -1.124640        1.000000        0.00038781        0.00014867        0.00001980
     133         -1.122028        1.000000        0.00001771        0.00001097        0.00000250
     134         -1.120887        1.000000        0.00000771        0.00000272        0.00000053
     135         -1.119308        1.000000        0.00090877        0.00041731        0.00004956
     136         -1.118408        1.000000        0.00017607        0.00007419        0.00001035
     137         -1.117769        1.000000        0.00027997        0.00010185        0.00001437
     138         -1.116570        1.000000        0.00035446        0.00013105        0.00002049
     139         -1.115096        1.000000        0.00012391        0.00004140        0.00000904
     140         -1.114402        1.000000        0.00001220        0.00001352        0.00001230
     141         -1.114039        1.000000        0.00001065        0.00000613        0.00000522
     142         -1.112381        1.000000        0.00009547        0.00003000        0.00000538
     143         -1.111588        1.000000        0.00000903        0.00001211        0.00000457
     144         -1.111356        1.000000        0.00143012        0.00051314        0.00007083
     145         -1.110913        1.000000        0.00010864        0.00003397        0.00000807
     146         -1.109631        1.000000        0.00144918        0.00050334        0.00006274
     147         -1.107338        1.000000        0.00016845        0.00005060        0.00000847
     148         -1.107163        1.000000        0.00004070        0.00001925        0.00000927
     149         -1.106911        1.000000        0.00122813        0.00039818        0.00005122
     150         -1.105904        1.000000        0.00027696        0.00007671        0.00001106
     151         -1.104513        1.000000        0.00000618        0.00000045        0.00000116
     152         -1.103753        1.000000        0.00025488        0.00005716        0.00001009
     153         -1.103233        1.000000        0.00069177        0.00022830        0.00003691
     154         -1.101116        1.000000        0.00306147        0.00099829        0.00012561
     155         -1.099878        1.000000        0.00204709        0.00064597        0.00008538
     156         -1.099527        1.000000        0.00013842        0.00003320        0.00000585
     157         -1.099360        1.000000        0.00014705        0.00004548        0.00000582
     158         -1.097449        1.000000        0.00002204        0.00001293        0.00000749
     159         -1.097246        1.000000        0.00081318        0.00031671        0.00003713
     160         -1.096336        1.000000        0.00001081        0.00000904        0.00000776
     161         -1.095776        1.000000        0.00005941        0.00001018        0.00000154
     162         -1.094258        1.000000        0.00031579        0.00005805        0.00001049
     163         -1.093701        1.000000        0.00194657        0.00036300        0.00005964
     164         -1.093107        1.000000        0.00234752        0.00065006        0.00007877
     165         -1.091600        1.000000        0.00070724        0.00015930        0.00002169
     166         -1.090890        1.000000        0.00083999        0.00023543        0.00003863
     167         -1.090283        1.000000        0.00000648        0.00000709        0.00000565
     168         -1.089378        1.000000        0.00049849        0.00006851        0.00001477
     169         -1.088506        1.000000        0.00000645        0.00004205        0.00000418
     170         -1.086931        1.000000        0.00003721        0.00000836        0.00000466
     171         -1.086367        1.000000        0.00065943        0.00014311        0.00002206
     172         -1.085327        1.000000        0.00000537        0.00002194        0.00001850
     173         -1.084766        1.000000        0.00003288        0.00002723        0.00000824
     174         -1.083961        1.000000        0.00004525        0.00000889        0.00000446
     175         -1.082920        1.000000        0.00148705        0.00024370        0.00004788
     176         -1.081700        1.000000        0.00002186        0.00005974        0.00001241
     177         -1.081031        1.000000        0.00011074        0.00000843        0.00000975
     178         -1.080558        1.000000        0.00018955        0.00002506        0.00003420
     179         -1.080415        1.000000        0.00209101        0.00034557        0.00005402
     180         -1.080047        1.000000        0.00264485        0.00034121        0.00006057
     181         -1.077309        1.000000        0.00001703        0.00005214        0.00000479
     182         -1.076601        1.000000        0.00064929        0.00006356        0.00002899
     183         -1.076342        1.000000        0.00101987        0.00009498        0.00004037
     184         -1.076154        1.000000        0.00087883        0.00011769        0.00001725
     185         -1.075469        1.000000        0.00459839        0.00027389        0.00011864
     186         -1.074904        1.000000        0.00500117        0.00036934        0.00009182
     187         -1.074160        1.000000        0.00262543        0.00022643        0.00003311
     188         -1.073364        1.000000        0.00065880        0.00004072        0.00003555
     189         -1.071841        1.000000        0.00000591        0.00003847        0.00000771
     190         -1.071436        1.000000        0.00483012        0.00022161        0.00005577
     191         -1.070358        1.000000        0.00022108        0.00000824        0.00000078
     192         -1.070160        1.000000        0.00277279        0.00013207        0.00002956
     193         -1.069551        1.000000        0.00203160        0.00022223        0.00002936
     194         -1.069042        1.000000        0.00122021        0.00010094        0.00002357
     195         -1.068018        1.000000        0.00449274        0.00028144        0.00004865
     196         -1.067683        1.000000        0.00119792        0.00003176        0.00001479
     197         -1.067094        1.000000        0.00001213        0.00000323        0.00000034
     198         -1.066200        1.000000        0.00032005        0.00003676        0.00000460
     199         -1.065105        1.000000        0.00055063        0.00012416        0.00004522
     200         -1.064600        1.000000        0.00001785        0.00081173        0.00010309
     201         -1.063825        1.000000        0.00004789        0.00006498        0.00002150
     202         -1.063672        1.000000        0.00013427        0.00008548        0.00003444
     203         -1.062915        1.000000        0.00011739        0.00017915        0.00002483
     204         -1.062259        1.000000        0.00004425        0.00005529        0.00001100
     205         -1.061986        1.000000        0.00005208        0.00007909        0.00001628
     206         -1.060822        1.000000        0.00000152        0.00003601        0.00000291
     207         -1.060230        1.000000        0.00152169        0.00015362        0.00003879
     208         -1.059971        1.000000        0.00014051        0.00000548        0.00001516
     209         -1.059399        1.000000        0.00029709        0.00025498        0.00003600
     210         -1.058798        1.000000        0.00008150        0.00005508        0.00002696
     211         -1.058498        1.000000        0.00020239        0.00010681        0.00007387
     212         -1.057049        1.000000        0.00110488        0.00051336        0.00002776
     213         -1.056896        1.000000        0.00391769        0.00034452        0.00018290
     214         -1.056403        1.000000        0.00076529        0.00004734        0.00002069
     215         -1.056079        1.000000        0.00002248        0.00002671        0.00000353
     216         -1.055624        1.000000        0.00000103        0.00002081        0.00000097
     217         -1.055288        1.000000        0.00000830        0.00000991        0.00000278
     218         -1.054828        1.000000        0.00032073        0.00002057        0.00000565
     219         -1.054413        1.000000        0.00092356        0.00003625        0.00002067
     220         -1.053990        1.000000        0.00000921        0.00000054        0.00000256
     221         -1.053598        1.000000        0.00004135        0.00001289        0.00000321
     222         -1.053387        1.000000        0.00058783        0.00005495        0.00001073
     223         -1.052953        1.000000        0.00154195        0.00015350        0.00005429
     224         -1.052779        1.000000        0.00069875        0.00010301        0.00003476
     225         -1.052376        1.000000        0.00025279        0.00001719        0.00001179
     226         -1.052297        1.000000        0.00001627        0.00000332        0.00000049
     227         -1.051819        1.000000        0.00241324        0.00021353        0.00006733
     228         -1.051536        1.000000        0.00066623        0.00008076        0.00002920
     229         -1.051232        1.000000        0.00179401        0.00030053        0.00009174
     230         -1.050581        1.000000        0.00087801        0.00009394        0.00001630
     231         -1.050140        1.000000        0.00022181        0.00004268        0.00001138
     232         -1.049834        1.000000        0.00004952        0.00001055        0.00000195
     233         -1.049588        1.000000        0.00001660        0.00000139        0.00000021
     234         -1.049506        1.000000        0.00002547        0.00000241        0.00000058
     235         -1.048565        1.000000        0.00000016        0.00000888        0.00000291
     236         -1.048103        1.000000        0.00018048        0.00002297        0.00001362
     237         -1.048023        1.000000        0.00032312        0.00005914        0.00003756
     238         -1.047651        1.000000        0.00009931        0.00002162        0.00001884
     239         -1.047305        1.000000        0.00000027        0.00002496        0.00002040
     240         -1.046707        1.000000        0.00001500        0.00000350        0.00000108
     241         -1.046592        1.000000        0.00000544        0.00000148        0.00000108
     242         -1.046281        1.000000        0.00000507        0.00000179        0.00000138
     243         -1.045974        1.000000        0.00001736        0.00001823        0.00000139
     244         -1.045866        1.000000        0.00003700        0.00000055        0.00000209
     245         -1.045771        1.000000        0.00006555        0.00001893        0.00000302
     246         -1.045301        1.000000        0.00399754        0.00068288        0.00028655
     247         -1.045020        1.000000        0.00023538        0.00003366        0.00001380
     248         -1.043956        1.000000        0.00013853        0.00003834        0.00002788
     249         -1.043818        1.000000        0.00068131        0.00002992        0.00001811
     250         -1.043244        1.000000        0.00029866        0.00007259        0.00002530
     251         -1.043119        1.000000        0.00001175        0.00000295        0.00000273
     252         -1.042993        1.000000        0.00001594        0.00000711        0.00000371
     253         -1.042515        1.000000        0.00011020        0.00002451        0.00000695
     254         -1.041302        1.000000        0.00001648        0.00000497        0.00000410
     255         -1.041116        1.000000        0.00037943        0.00004048        0.00001499
     256         -1.040594        1.000000        0.00004025        0.00000409        0.00000042
     257         -1.040094        1.000000        0.00008357        0.00000576        0.00000312
     258         -1.039599        1.000000        0.00013935        0.00000306        0.00000176
     259         -1.039408        1.000000        0.00003508        0.00001765        0.00002420
     260         -1.038970        1.000000        0.00001692        0.00000700        0.00001255
     261         -1.038561        1.000000        0.00007237        0.00000488        0.00000133
     262         -1.038022        1.000000        0.00004330        0.00000332        0.00000096
     263         -1.037841        1.000000        0.00007194        0.00000407        0.00000086
     264         -1.036991        1.000000        0.00001115        0.00003867        0.00006998
     265         -1.036854        1.000000        0.00000088        0.00019231        0.00029370
     266         -1.035910        1.000000        0.00000670        0.00000578        0.00000786
     267         -1.035115        1.000000        0.00029774        0.00003676        0.00001272
     268         -1.034275        1.000000        0.00017855        0.00001085        0.00000771
     269         -1.033697        1.000000        0.00001256        0.00000259        0.00000081
     270         -1.033444        1.000000        0.00092532        0.00003390        0.00002236
     271         -1.033385        1.000000        0.00020681        0.00000930        0.00000834
     272         -1.033262        1.000000        0.00013787        0.00000569        0.00000386
     273         -1.032346        1.000000        0.00010740        0.00000587        0.00000826
     274         -1.031626        1.000000        0.00002475        0.00000047        0.00000007
     275         -1.030746        1.000000        0.00000039        0.00000003        0.00000004
     276         -1.029780        1.000000        0.00002720        0.00000063        0.00000010
     277         -1.028980        1.000000        0.00001126        0.00000021        0.00000004
     278         -1.027492        1.000000        0.00438681        0.00008763        0.00002193
     279         -1.025795        1.000000        0.00003273        0.00002475        0.00002246
     280         -1.023990        1.000000        0.00008893        0.00000299        0.00000092
     281         -1.022755        1.000000        0.00000776        0.00000018        0.00000004
     282         -1.019871        1.000000        0.00003698        0.00000054        0.00000004
     283         -1.017737        1.000000        0.43195670        0.00644171        0.00026380
     284         -1.012409        1.000000        0.00000325        0.00000005        0.00000000
     285         -1.010522        1.000000        0.00000125        0.00000002        0.00000000
     286         -0.880961        1.000000        0.00000028        0.00000013        0.00000010
     287         -0.861761        1.000000        0.00000015        0.00000008        0.00000001
     288         -0.860652        1.000000        0.00000008        0.00000042        0.00000010
     289         -0.854811        1.000000        0.00000006        0.00000014        0.00000008
     290         -0.853189        1.000000        0.00000002        0.00000010        0.00000007
     291         -0.838407        1.000000        0.00000002        0.00000068        0.00000012
     292         -0.837131        1.000000        0.00000004        0.00000013        0.00000003
     293         -0.835422        1.000000        0.00000006        0.00000007        0.00000004
     294         -0.832873        1.000000        0.00000000        0.00000017        0.00000008
     295         -0.813092        1.000000        0.00000016        0.00000009        0.00000004
     296         -0.811309        1.000000        0.00000007        0.00000064        0.00000008
     297         -0.805633        1.000000        0.00000035        0.00000026        0.00000013
     298         -0.800994        1.000000        0.00000005        0.00000006        0.00000003
     299         -0.798544        1.000000        0.00000007        0.00000021        0.00000006
     300         -0.797176        1.000000        0.00000008        0.00000009        0.00000003
     301         -0.796065        1.000000        0.00000003        0.00000007        0.00000001
     302         -0.795247        1.000000        0.00000009        0.00000005        0.00000002
     303         -0.794465        1.000000        0.00000003        0.00000016        0.00000002
     304         -0.792558        1.000000        0.00000005        0.00000014        0.00000002
     305         -0.791532        1.000000        0.00000002        0.00000005        0.00000008
     306         -0.790931        1.000000        0.00000001        0.00000038        0.00000006
     307         -0.790366        1.000000        0.00000002        0.00000015        0.00000006