# Projected DOS for list 279 of 1 atoms, at iteration step i = 0, E(Fermi) =    -0.237583 a.u.
#     MO Eigenvalue [a.u.]      Occupation                 s                 p                 d
       1         -3.115895        1.000000        0.00000002        0.00000002        0.00000001
       2         -3.112717        1.000000        0.00000009        0.00000073        0.00000020
       3         -3.112103        1.000000        0.00000000        0.00000000        0.00000000
       4         -3.111180        1.000000        0.00000000        0.00000000        0.00000000
       5         -3.110810        1.000000        0.00000001        0.00000002        0.00000000
       6         -3.110575        1.000000        0.00000009        0.00000022        0.00000006
       7         -3.110067        1.000000        0.00000006        0.00000007        0.00000003
       8         -3.109817        1.000000        0.00000019        0.00000173        0.00000039
       9         -3.109660        1.000000        0.00000000        0.00000005        0.00000005
      10         -3.108831        1.000000        0.00000000        0.00000002        0.00000001
      11         -3.108678        1.000000        0.00000000        0.00000002        0.00000000
      12         -3.108578        1.000000        0.00000000        0.00000000        0.00000000
      13         -3.108350        1.000000        0.00000000        0.00000001        0.00000001
      14         -3.108163        1.000000        0.00000005        0.00000006        0.00000002
      15         -3.107948        1.000000        0.00000000        0.00000002        0.00000001
      16         -3.107865        1.000000        0.00000001        0.00000003        0.00000001
      17         -3.107703        1.000000        0.00000001        0.00000016        0.00000002
      18         -3.107683        1.000000        0.00000001        0.00000004        0.00000001
      19         -3.107641        1.000000        0.00000000        0.00000004        0.00000001
      20         -3.107604        1.000000        0.00000000        0.00000002        0.00000000
      21         -3.107402        1.000000        0.00000001        0.00000004        0.00000001
      22         -3.107115        1.000000        0.00000000        0.00000000        0.00000000
      23         -3.107013        1.000000        0.00000000        0.00000003        0.00000001
      24         -3.106750        1.000000        0.00000013        0.00000092        0.00000012
      25         -3.106619        1.000000        0.00000001        0.00000011        0.00000002
      26         -3.106567        1.000000        0.00000000        0.00000001        0.00000000
      27         -3.106546        1.000000        0.00000000        0.00000000        0.00000000
      28         -3.106258        1.000000        0.00000001        0.00000004        0.00000001
      29         -3.106103        1.000000        0.00000000        0.00000002        0.00000000
      30         -3.104674        1.000000        0.00000000        0.00000000        0.00000000
      31         -1.775522        1.000000        0.00000000        0.00000001        0.00000000
      32         -1.773964        1.000000        0.00000000        0.00000000        0.00000000
      33         -1.773454        1.000000        0.00000000        0.00000000        0.00000000
      34         -1.773008        1.000000        0.00000000        0.00000000        0.00000000
      35         -1.772581        1.000000        0.00000001        0.00000003        0.00000000
      36         -1.772213        1.000000        0.00000000        0.00000001        0.00000001
      37         -1.771852        1.000000        0.00000001        0.00000003        0.00000001
      38         -1.771444        1.000000        0.00000000        0.00000001        0.00000000
      39         -1.771233        1.000000        0.00000000        0.00000002        0.00000000
      40         -1.770977        1.000000        0.00000002        0.00000012        0.00000002
      41         -1.770760        1.000000        0.00000001        0.00000010        0.00000001
      42         -1.770111        1.000000        0.00000000        0.00000001        0.00000000
      43         -1.770034        1.000000        0.00000000        0.00000000        0.00000000
      44         -1.769495        1.000000        0.00000000        0.00000001        0.00000000
      45         -1.769421        1.000000        0.00000000        0.00000001        0.00000000
      46         -1.769063        1.000000        0.00000001        0.00000006        0.00000001
      47         -1.768532        1.000000        0.00000001        0.00000005        0.00000001
      48         -1.768412        1.000000        0.00000000        0.00000002        0.00000000
      49         -1.767811        1.000000        0.00000000        0.00000002        0.00000000
      50         -1.767614        1.000000        0.00000000        0.00000001        0.00000000
      51         -1.767477        1.000000        0.00000000        0.00000005        0.00000002
      52         -1.765531        1.000000        0.00000000        0.00000001        0.00000000
      53         -1.765088        1.000000        0.00000000        0.00000001        0.00000000
      54         -1.764557        1.000000        0.00000000        0.00000000        0.00000000
      55         -1.763772        1.000000        0.00000000        0.00000001        0.00000000
      56         -1.763328        1.000000        0.00000000        0.00000001        0.00000000
      57         -1.762925        1.000000        0.00000000        0.00000002        0.00000000
      58         -1.762506        1.000000        0.00000000        0.00000001        0.00000001
      59         -1.762119        1.000000        0.00000000        0.00000001        0.00000001
      60         -1.762053        1.000000        0.00000000        0.00000004        0.00000001
      61         -1.761895        1.000000        0.00000000        0.00000002        0.00000001
      62         -1.761602        1.000000        0.00000000        0.00000000        0.00000000
      63         -1.761509        1.000000        0.00000000        0.00000002        0.00000000
      64         -1.761377        1.000000        0.00000000        0.00000004        0.00000001
      65         -1.761171        1.000000        0.00000000        0.00000003        0.00000001
      66         -1.760998        1.000000        0.00000000        0.00000004        0.00000002
      67         -1.760877        1.000000        0.00000000        0.00000004        0.00000001
      68         -1.760806        1.000000        0.00000000        0.00000001        0.00000000
      69         -1.760684        1.000000        0.00000000        0.00000000        0.00000000
      70         -1.760645        1.000000        0.00000000        0.00000000        0.00000000
      71         -1.760442        1.000000        0.00000000        0.00000003        0.00000001
      72         -1.760098        1.000000        0.00000001        0.00000005        0.00000001
      73         -1.759962        1.000000        0.00000001        0.00000005        0.00000001
      74         -1.759824        1.000000        0.00000000        0.00000001        0.00000000
      75         -1.759787        1.000000        0.00000000        0.00000001        0.00000001
      76         -1.759638        1.000000        0.00000000        0.00000001        0.00000000
      77         -1.759601        1.000000        0.00000001        0.00000012        0.00000003
      78         -1.759512        1.000000        0.00000000        0.00000001        0.00000000
      79         -1.759406        1.000000        0.00000000        0.00000002        0.00000000
      80         -1.759287        1.000000        0.00000000        0.00000001        0.00000000
      81         -1.759176        1.000000        0.00000000        0.00000000        0.00000000
      82         -1.758872        1.000000        0.00000000        0.00000000        0.00000000
      83         -1.758781        1.000000        0.00000000        0.00000000        0.00000000
      84         -1.758726        1.000000        0.00000000        0.00000002        0.00000000
      85         -1.758559        1.000000        0.00000000        0.00000003        0.00000002
      86         -1.758378        1.000000        0.00000000        0.00000001        0.00000000
      87         -1.758294        1.000000        0.00000000        0.00000000        0.00000000
      88         -1.758087        1.000000        0.00000000        0.00000000        0.00000000
      89         -1.757987        1.000000        0.00000001        0.00000005        0.00000001
      90         -1.757734        1.000000        0.00000000        0.00000002        0.00000000
      91         -1.757649        1.000000        0.00000000        0.00000001        0.00000000
      92         -1.757529        1.000000        0.00000000        0.00000000        0.00000000
      93         -1.757404        1.000000        0.00000000        0.00000001        0.00000000
      94         -1.757324        1.000000        0.00000000        0.00000000        0.00000000
      95         -1.757187        1.000000        0.00000000        0.00000001        0.00000000
      96         -1.757137        1.000000        0.00000000        0.00000001        0.00000000
      97         -1.756770        1.000000        0.00000000        0.00000000        0.00000000
      98         -1.756598        1.000000        0.00000000        0.00000000        0.00000000
      99         -1.756513        1.000000        0.00000000        0.00000000        0.00000000
     100         -1.756186        1.000000        0.00000000        0.00000000        0.00000000
     101         -1.755847        1.000000        0.00000000        0.00000000        0.00000000
     102         -1.755716        1.000000        0.00000000        0.00000003        0.00000001
     103         -1.755306        1.000000        0.00000000        0.00000000        0.00000000
     104         -1.755052        1.000000        0.00000000        0.00000000        0.00000000
     105         -1.754765        1.000000        0.00000001        0.00000009        0.00000001
     106         -1.754094        1.000000        0.00000000        0.00000000        0.00000000
     107         -1.753681        1.000000        0.00000000        0.00000000        0.00000000
     108         -1.753548        1.000000        0.00000000        0.00000001        0.00000000
     109         -1.753256        1.000000        0.00000000        0.00000003        0.00000000
     110         -1.752675        1.000000        0.00000000        0.00000001        0.00000000
     111         -1.752502        1.000000        0.00000000        0.00000001        0.00000000
     112         -1.752253        1.000000        0.00000000        0.00000000        0.00000000
     113         -1.751643        1.000000        0.00000000        0.00000001        0.00000000
     114         -1.751317        1.000000        0.00000000        0.00000002        0.00000000
     115         -1.749193        1.000000        0.00000000        0.00000000        0.00000000
     116         -1.748137        1.000000        0.00000000        0.00000000        0.00000000
     117         -1.747283        1.000000        0.00000000        0.00000000        0.00000000
     118         -1.745962        1.000000        0.00000000        0.00000000        0.00000000
     119         -1.745880        1.000000        0.00000000        0.00000000        0.00000000
     120         -1.744143        1.000000        0.00000000        0.00000000        0.00000000
     121         -1.145318        1.000000        0.00005678        0.00002955        0.00000369
     122         -1.141162        1.000000        0.00007282        0.00002834        0.00000421
     123         -1.135518        1.000000        0.00000174        0.00000190        0.00000063
     124         -1.134356        1.000000        0.00048557        0.00017363        0.00002436
     125         -1.132797        1.000000        0.00029592        0.00011818        0.00001472
     126         -1.131675        1.000000        0.00006221        0.00002824        0.00000346
     127         -1.130657        1.000000        0.00001591        0.00000694        0.00000111
     128         -1.129329        1.000000        0.00007269        0.00003630        0.00000470
     129         -1.127805        1.000000        0.00001156        0.00000157        0.00000073
     130         -1.126970        1.000000        0.00128078        0.00038832        0.00005389
     131         -1.125100        1.000000        0.00025623        0.00008851        0.00001137
     132         -1.124640        1.000000        0.00000031        0.00000627        0.00000529
     133         -1.122028        1.000000        0.00015164        0.00003697        0.00000559
     134         -1.120887        1.000000        0.00004389        0.00001132        0.00000239
     135         -1.119308        1.000000        0.00107995        0.00038971        0.00005389
     136         -1.118408        1.000000        0.00005904        0.00001811        0.00000321
     137         -1.117769        1.000000        0.00105718        0.00037813        0.00005294
     138         -1.116570        1.000000        0.00015847        0.00003334        0.00000561
     139         -1.115096        1.000000        0.00153143        0.00050575        0.00006714
     140         -1.114402        1.000000        0.00247870        0.00070272        0.00010019
     141         -1.114039        1.000000        0.00246118        0.00074705        0.00009046
     142         -1.112381        1.000000        0.00048808        0.00015009        0.00002236
     143         -1.111588        1.000000        0.00012723        0.00003512        0.00000775
     144         -1.111356        1.000000        0.00000008        0.00000727        0.00000704
     145         -1.110913        1.000000        0.00012353        0.00005275        0.00001519
     146         -1.109631        1.000000        0.00041130        0.00012718        0.00002280
     147         -1.107338        1.000000        0.00000489        0.00000837        0.00000842
     148         -1.107163        1.000000        0.00000194        0.00000036        0.00000041
     149         -1.106911        1.000000        0.00073698        0.00019265        0.00002835
     150         -1.105904        1.000000        0.00005284        0.00001993        0.00000270
     151         -1.104513        1.000000        0.00022594        0.00005748        0.00000744
     152         -1.103753        1.000000        0.00002414        0.00001344        0.00000340
     153         -1.103233        1.000000        0.00000520        0.00000699        0.00000403
     154         -1.101116        1.000000        0.00015172        0.00003704        0.00000905
     155         -1.099878        1.000000        0.00002371        0.00000158        0.00000119
     156         -1.099527        1.000000        0.00055596        0.00016127        0.00002232
     157         -1.099360        1.000000        0.00271123        0.00057492        0.00007963
     158         -1.097449        1.000000        0.00060185        0.00015227        0.00002827
     159         -1.097246        1.000000        0.00178910        0.00048544        0.00006537
     160         -1.096336        1.000000        0.00015549        0.00002096        0.00000325
     161         -1.095776        1.000000        0.00028979        0.00004777        0.00000580
     162         -1.094258        1.000000        0.00191034        0.00034936        0.00004190
     163         -1.093701        1.000000        0.00216445        0.00038301        0.00005886
     164         -1.093107        1.000000        0.00002709        0.00000352        0.00000218
     165         -1.091600        1.000000        0.00065032        0.00009254        0.00001199
     166         -1.090890        1.000000        0.00061369        0.00009640        0.00002137
     167         -1.090283        1.000000        0.00016033        0.00003133        0.00000502
     168         -1.089378        1.000000        0.00064249        0.00013323        0.00001998
     169         -1.088506        1.000000        0.00125840        0.00024271        0.00004336
     170         -1.086931        1.000000        0.00076030        0.00009437        0.00001287
     171         -1.086367        1.000000        0.00345366        0.00037294        0.00004087
     172         -1.085327        1.000000        0.00034485        0.00009561        0.00001546
     173         -1.084766        1.000000        0.00087215        0.00007603        0.00001956
     174         -1.083961        1.000000        0.00008882        0.00001029        0.00000265
     175         -1.082920        1.000000        0.00044278        0.00003908        0.00002039
     176         -1.081700        1.000000        0.00051386        0.00003594        0.00001780
     177         -1.081031        1.000000        0.00260680        0.00022620        0.00003204
     178         -1.080558        1.000000        0.00111872        0.00012971        0.00001768
     179         -1.080415        1.000000        0.00112871        0.00012438        0.00001404
     180         -1.080047        1.000000        0.00124047        0.00014339        0.00002536
     181         -1.077309        1.000000        0.00135227        0.00011822        0.00002419
     182         -1.076601        1.000000        0.00038094        0.00005798        0.00000848
     183         -1.076342        1.000000        0.00173740        0.00012938        0.00001919
     184         -1.076154        1.000000        0.00064243        0.00003484        0.00001807
     185         -1.075469        1.000000        0.00403116        0.00032864        0.00003102
     186         -1.074904        1.000000        0.00046875        0.00004253        0.00000714
     187         -1.074160        1.000000        0.00212272        0.00017687        0.00002859
     188         -1.073364        1.000000        0.00005754        0.00000850        0.00000564
     189         -1.071841        1.000000        0.00010398        0.00014033        0.00007392
     190         -1.071436        1.000000        0.00069588        0.00003732        0.00000355
     191         -1.070358        1.000000        0.00192444        0.00015362        0.00006043
     192         -1.070160        1.000000        0.01022257        0.00063501        0.00016963
     193         -1.069551        1.000000        0.00076212        0.00012385        0.00004644
     194         -1.069042        1.000000        0.00014291        0.00002150        0.00000389
     195         -1.068018        1.000000        0.00001259        0.00006192        0.00002388
     196         -1.067683        1.000000        0.00001324        0.00000901        0.00000424
     197         -1.067094        1.000000        0.00244805        0.00015220        0.00002667
     198         -1.066200        1.000000        0.00035526        0.00011823        0.00002681
     199         -1.065105        1.000000        0.00001000        0.00007145        0.00005176
     200         -1.064600        1.000000        0.00036929        0.00002847        0.00003681
     201         -1.063825        1.000000        0.00032874        0.00006412        0.00001370
     202         -1.063672        1.000000        0.00006905        0.00018923        0.00006381
     203         -1.062915        1.000000        0.00098648        0.00005881        0.00001075
     204         -1.062259        1.000000        0.00021252        0.00004263        0.00000837
     205         -1.061986        1.000000        0.00004988        0.00003405        0.00001694
     206         -1.060822        1.000000        0.00002178        0.00001029        0.00001131
     207         -1.060230        1.000000        0.00000298        0.00002760        0.00002356
     208         -1.059971        1.000000        0.00000050        0.00001863        0.00002011
     209         -1.059399        1.000000        0.00080992        0.00011528        0.00002276
     210         -1.058798        1.000000        0.00021610        0.00004815        0.00007321
     211         -1.058498        1.000000        0.00026939        0.00002740        0.00001451
     212         -1.057049        1.000000        0.00000410        0.00003112        0.00000967
     213         -1.056896        1.000000        0.00000881        0.00005541        0.00001495
     214         -1.056403        1.000000        0.00000239        0.00000531        0.00001638
     215         -1.056079        1.000000        0.00010365        0.00002611        0.00000848
     216         -1.055624        1.000000        0.00001781        0.00003346        0.00005680
     217         -1.055288        1.000000        0.00005053        0.00001923        0.00001388
     218         -1.054828        1.000000        0.00011202        0.00001280        0.00000729
     219         -1.054413        1.000000        0.00001919        0.00000582        0.00000939
     220         -1.053990        1.000000        0.00003722        0.00000948        0.00001100
     221         -1.053598        1.000000        0.00013425        0.00004108        0.00002917
     222         -1.053387        1.000000        0.00058660        0.00002503        0.00001317
     223         -1.052953        1.000000        0.00001071        0.00005878        0.00006383
     224         -1.052779        1.000000        0.00000075        0.00002424        0.00003340
     225         -1.052376        1.000000        0.00023761        0.00003814        0.00002241
     226         -1.052297        1.000000        0.00002305        0.00000286        0.00000170
     227         -1.051819        1.000000        0.00000354        0.00000727        0.00001073
     228         -1.051536        1.000000        0.00018294        0.00001108        0.00000513
     229         -1.051232        1.000000        0.00000102        0.00000027        0.00000036
     230         -1.050581        1.000000        0.00032918        0.00001723        0.00000184
     231         -1.050140        1.000000        0.00150856        0.00006997        0.00002117
     232         -1.049834        1.000000        0.00006262        0.00000267        0.00000105
     233         -1.049588        1.000000        0.00000885        0.00000537        0.00000766
     234         -1.049506        1.000000        0.00006759        0.00000459        0.00000132
     235         -1.048565        1.000000        0.00092616        0.00004820        0.00001749
     236         -1.048103        1.000000        0.00044057        0.00002596        0.00001233
     237         -1.048023        1.000000        0.00007116        0.00001469        0.00001757
     238         -1.047651        1.000000        0.00095563        0.00005627        0.00002830
     239         -1.047305        1.000000        0.00000030        0.00000137        0.00000125
     240         -1.046707        1.000000        0.00024107        0.00001118        0.00000372
     241         -1.046592        1.000000        0.00009486        0.00000586        0.00000246
     242         -1.046281        1.000000        0.00001391        0.00000057        0.00000068
     243         -1.045974        1.000000        0.00000018        0.00000525        0.00000302
     244         -1.045866        1.000000        0.00039774        0.00001545        0.00000139
     245         -1.045771        1.000000        0.00018656        0.00001667        0.00001030
     246         -1.045301        1.000000        0.00004726        0.00000689        0.00000510
     247         -1.045020        1.000000        0.00002321        0.00001765        0.00001968
     248         -1.043956        1.000000        0.00001406        0.00000171        0.00000037
     249         -1.043818        1.000000        0.00082335        0.00002724        0.00000236
     250         -1.043244        1.000000        0.00013651        0.00000960        0.00000313
     251         -1.043119        1.000000        0.00008366        0.00000269        0.00000049
     252         -1.042993        1.000000        0.00000060        0.00000150        0.00000124
     253         -1.042515        1.000000        0.00014072        0.00000459        0.00000105
     254         -1.041302        1.000000        0.00175473        0.00005983        0.00000834
     255         -1.041116        1.000000        0.00310525        0.00010767        0.00001698
     256         -1.040594        1.000000        0.00000258        0.00000026        0.00000039
     257         -1.040094        1.000000        0.00176548        0.00006326        0.00001046
     258         -1.039599        1.000000        0.00133724        0.00004412        0.00000442
     259         -1.039408        1.000000        0.00500522        0.00015148        0.00001111
     260         -1.038970        1.000000        0.00365645        0.00011215        0.00000817
     261         -1.038561        1.000000        0.00042888        0.00001472        0.00000151
     262         -1.038022        1.000000        0.00026095        0.00000805        0.00000046
     263         -1.037841        1.000000        0.00015546        0.00000590        0.00000229
     264         -1.036991        1.000000        0.00115839        0.00003688        0.00001420
     265         -1.036854        1.000000        0.00964296        0.00027772        0.00006292
     266         -1.035910        1.000000        0.00024219        0.00000692        0.00000150
     267         -1.035115        1.000000        0.01267608        0.00034767        0.00001088
     268         -1.034275        1.000000        0.00502391        0.00014733        0.00000552
     269         -1.033697        1.000000        0.00281724        0.00007662        0.00000232
     270         -1.033444        1.000000        0.10291008        0.00288004        0.00009011
     271         -1.033385        1.000000        0.10927582        0.00303917        0.00009298
     272         -1.033262        1.000000        0.01146827        0.00032150        0.00001010
     273         -1.032346        1.000000        0.15747540        0.00432061        0.00015204
     274         -1.031626        1.000000        0.00005285        0.00000146        0.00000009
     275         -1.030746        1.000000        0.00001917        0.00000054        0.00000002
     276         -1.029780        1.000000        0.00000169        0.00000006        0.00000001
     277         -1.028980        1.000000        0.00000658        0.00000017        0.00000001
     278         -1.027492        1.000000        0.00186694        0.00005504        0.00000388
     279         -1.025795        1.000000        0.00039192        0.00000976        0.00000129
     280         -1.023990        1.000000        0.00087255        0.00002305        0.00000452
     281         -1.022755        1.000000        0.00000518        0.00000013        0.00000001
     282         -1.019871        1.000000        0.00000002        0.00000000        0.00000000
     283         -1.017737        1.000000        0.00020923        0.00000823        0.00000165
     284         -1.012409        1.000000        0.00000165        0.00000007        0.00000003
     285         -1.010522        1.000000        0.00000001        0.00000000        0.00000000
     286         -0.880961        1.000000        0.00000022        0.00000027        0.00000019
     287         -0.861761        1.000000        0.00000005        0.00000023        0.00000016
     288         -0.860652        1.000000        0.00000020        0.00000032        0.00000024
     289         -0.854811        1.000000        0.00000026        0.00000007        0.00000012
     290         -0.853189        1.000000        0.00000015        0.00000084        0.00000032
     291         -0.838407        1.000000        0.00000044        0.00000042        0.00000008
     292         -0.837131        1.000000        0.00000003        0.00000004        0.00000008
     293         -0.835422        1.000000        0.00000005        0.00000088        0.00000033
     294         -0.832873        1.000000        0.00000022        0.00000046        0.00000017
     295         -0.813092        1.000000        0.00000005        0.00000037        0.00000009
     296         -0.811309        1.000000        0.00000001        0.00000024        0.00000010
     297         -0.805633        1.000000        0.00000024        0.00000009        0.00000015
     298         -0.800994        1.000000        0.00000006        0.00000010        0.00000009
     299         -0.798544        1.000000        0.00000018        0.00000002        0.00000005
     300         -0.797176        1.000000        0.00000018        0.00000069        0.00000021
     301         -0.796065        1.000000        0.00000023        0.00000044        0.00000006
     302         -0.795247        1.000000        0.00000036        0.00000009        0.00000034
     303         -0.794465        1.000000        0.00000026        0.00000122        0.00000023
     304         -0.792558        1.000000        0.00000002        0.00000004        0.00000002
     305         -0.791532        1.000000        0.00000014        0.00000039        0.00000009
     306         -0.790931        1.000000        0.00000003        0.00000006        0.00000002
     307         -0.790366        1.000000        0.00000001        0.00000001        0.00000006