# Projected DOS for atomic kind Ht at iteration step i = 0, E(Fermi) =    -0.237583 a.u.
#     MO Eigenvalue [a.u.]      Occupation                 s                 p
       1         -3.115895        1.000000        0.00000025        0.00001743
       2         -3.112717        1.000000        0.00000025        0.00003249
       3         -3.112103        1.000000        0.00000099        0.00004191
       4         -3.111180        1.000000        0.00000036        0.00000773
       5         -3.110810        1.000000        0.00000070        0.00003164
       6         -3.110575        1.000000        0.00000038        0.00002630
       7         -3.110067        1.000000        0.00000029        0.00003090
       8         -3.109817        1.000000        0.00000038        0.00002596
       9         -3.109660        1.000000        0.00000012        0.00002086
      10         -3.108831        1.000000        0.00000058        0.00005605
      11         -3.108678        1.000000        0.00000122        0.00003000
      12         -3.108578        1.000000        0.00000079        0.00001911
      13         -3.108350        1.000000        0.00000029        0.00002110
      14         -3.108163        1.000000        0.00000047        0.00002233
      15         -3.107948        1.000000        0.00000024        0.00001631
      16         -3.107865        1.000000        0.00000071        0.00001230
      17         -3.107703        1.000000        0.00000043        0.00001001
      18         -3.107683        1.000000        0.00000021        0.00000478
      19         -3.107641        1.000000        0.00000025        0.00000674
      20         -3.107604        1.000000        0.00000033        0.00000818
      21         -3.107402        1.000000        0.00000031        0.00000409
      22         -3.107115        1.000000        0.00000037        0.00000380
      23         -3.107013        1.000000        0.00000018        0.00001241
      24         -3.106750        1.000000        0.00000142        0.00000887
      25         -3.106619        1.000000        0.00000048        0.00000559
      26         -3.106567        1.000000        0.00000005        0.00000216
      27         -3.106546        1.000000        0.00000017        0.00000420
      28         -3.106258        1.000000        0.00000104        0.00000758
      29         -3.106103        1.000000        0.00000066        0.00000523
      30         -3.104674        1.000000        0.00000027        0.00000351
      31         -1.775522        1.000000        0.00000004        0.00000051
      32         -1.773964        1.000000        0.00000003        0.00000026
      33         -1.773454        1.000000        0.00000005        0.00000035
      34         -1.773008        1.000000        0.00000005        0.00000031
      35         -1.772581        1.000000        0.00000003        0.00000021
      36         -1.772213        1.000000        0.00000004        0.00000028
      37         -1.771852        1.000000        0.00000015        0.00000080
      38         -1.771444        1.000000        0.00000008        0.00000062
      39         -1.771233        1.000000        0.00000015        0.00000093
      40         -1.770977        1.000000        0.00000012        0.00000086
      41         -1.770760        1.000000        0.00000016        0.00000083
      42         -1.770111        1.000000        0.00000010        0.00000072
      43         -1.770034        1.000000        0.00000026        0.00000170
      44         -1.769495        1.000000        0.00000004        0.00000042
      45         -1.769421        1.000000        0.00000007        0.00000103
      46         -1.769063        1.000000        0.00000007        0.00000080
      47         -1.768532        1.000000        0.00000015        0.00000089
      48         -1.768412        1.000000        0.00000010        0.00000109
      49         -1.767811        1.000000        0.00000013        0.00000075
      50         -1.767614        1.000000        0.00000005        0.00000069
      51         -1.767477        1.000000        0.00000006        0.00000073
      52         -1.765531        1.000000        0.00000005        0.00000037
      53         -1.765088        1.000000        0.00000011        0.00000220
      54         -1.764557        1.000000        0.00000004        0.00000043
      55         -1.763772        1.000000        0.00000014        0.00000101
      56         -1.763328        1.000000        0.00000025        0.00000105
      57         -1.762925        1.000000        0.00000020        0.00000133
      58         -1.762506        1.000000        0.00000020        0.00000061
      59         -1.762119        1.000000        0.00000026        0.00000055
      60         -1.762053        1.000000        0.00000020        0.00000053
      61         -1.761895        1.000000        0.00000024        0.00000055
      62         -1.761602        1.000000        0.00000019        0.00000100
      63         -1.761509        1.000000        0.00000011        0.00000095
      64         -1.761377        1.000000        0.00000015        0.00000080
      65         -1.761171        1.000000        0.00000009        0.00000034
      66         -1.760998        1.000000        0.00000006        0.00000094
      67         -1.760877        1.000000        0.00000020        0.00000067
      68         -1.760806        1.000000        0.00000021        0.00000062
      69         -1.760684        1.000000        0.00000012        0.00000089
      70         -1.760645        1.000000        0.00000038        0.00000079
      71         -1.760442        1.000000        0.00000013        0.00000027
      72         -1.760098        1.000000        0.00000010        0.00000067
      73         -1.759962        1.000000        0.00000011        0.00000042
      74         -1.759824        1.000000        0.00000027        0.00000043
      75         -1.759787        1.000000        0.00000013        0.00000032
      76         -1.759638        1.000000        0.00000027        0.00000049
      77         -1.759601        1.000000        0.00000011        0.00000075
      78         -1.759512        1.000000        0.00000049        0.00000071
      79         -1.759406        1.000000        0.00000009        0.00000027
      80         -1.759287        1.000000        0.00000017        0.00000051
      81         -1.759176        1.000000        0.00000025        0.00000056
      82         -1.758872        1.000000        0.00000017        0.00000079
      83         -1.758781        1.000000        0.00000009        0.00000027
      84         -1.758726        1.000000        0.00000019        0.00000045
      85         -1.758559        1.000000        0.00000019        0.00000051
      86         -1.758378        1.000000        0.00000035        0.00000048
      87         -1.758294        1.000000        0.00000022        0.00000031
      88         -1.758087        1.000000        0.00000005        0.00000029
      89         -1.757987        1.000000        0.00000010        0.00000039
      90         -1.757734        1.000000        0.00000007        0.00000091
      91         -1.757649        1.000000        0.00000005        0.00000078
      92         -1.757529        1.000000        0.00000007        0.00000028
      93         -1.757404        1.000000        0.00000015        0.00000037
      94         -1.757324        1.000000        0.00000009        0.00000030
      95         -1.757187        1.000000        0.00000011        0.00000031
      96         -1.757137        1.000000        0.00000007        0.00000031
      97         -1.756770        1.000000        0.00000005        0.00000020
      98         -1.756598        1.000000        0.00000010        0.00000035
      99         -1.756513        1.000000        0.00000004        0.00000028
     100         -1.756186        1.000000        0.00000004        0.00000021
     101         -1.755847        1.000000        0.00000003        0.00000019
     102         -1.755716        1.000000        0.00000019        0.00000062
     103         -1.755306        1.000000        0.00000005        0.00000041
     104         -1.755052        1.000000        0.00000004        0.00000026
     105         -1.754765        1.000000        0.00000012        0.00000097
     106         -1.754094        1.000000        0.00000003        0.00000031
     107         -1.753681        1.000000        0.00000003        0.00000025
     108         -1.753548        1.000000        0.00000007        0.00000110
     109         -1.753256        1.000000        0.00000003        0.00000025
     110         -1.752675        1.000000        0.00000004        0.00000037
     111         -1.752502        1.000000        0.00000005        0.00000032
     112         -1.752253        1.000000        0.00000002        0.00000011
     113         -1.751643        1.000000        0.00000003        0.00000034
     114         -1.751317        1.000000        0.00000003        0.00000046
     115         -1.749193        1.000000        0.00000001        0.00000005
     116         -1.748137        1.000000        0.00000000        0.00000003
     117         -1.747283        1.000000        0.00000000        0.00000002
     118         -1.745962        1.000000        0.00000001        0.00000004
     119         -1.745880        1.000000        0.00000000        0.00000002
     120         -1.744143        1.000000        0.00000000        0.00000003
     121         -1.145318        1.000000        0.00064923        0.00065257
     122         -1.141162        1.000000        0.00064338        0.00065702
     123         -1.135518        1.000000        0.01380214        0.00973096
     124         -1.134356        1.000000        0.00650165        0.00409065
     125         -1.132797        1.000000        0.00122281        0.00106633
     126         -1.131675        1.000000        0.00161383        0.00148734
     127         -1.130657        1.000000        0.00180187        0.00130342
     128         -1.129329        1.000000        0.01150352        0.00745721
     129         -1.127805        1.000000        0.02173401        0.01490479
     130         -1.126970        1.000000        0.01371157        0.00729535
     131         -1.125100        1.000000        0.01047226        0.00649729
     132         -1.124640        1.000000        0.00732099        0.00520252
     133         -1.122028        1.000000        0.00955465        0.00533463
     134         -1.120887        1.000000        0.01163541        0.00747361
     135         -1.119308        1.000000        0.01333043        0.00949401
     136         -1.118408        1.000000        0.00920418        0.00616930
     137         -1.117769        1.000000        0.00549047        0.00350054
     138         -1.116570        1.000000        0.02032516        0.01405508
     139         -1.115096        1.000000        0.00608312        0.00291472
     140         -1.114402        1.000000        0.00658742        0.00421808
     141         -1.114039        1.000000        0.01518286        0.00678092
     142         -1.112381        1.000000        0.01133865        0.00797775
     143         -1.111588        1.000000        0.01425168        0.00909157
     144         -1.111356        1.000000        0.01640442        0.01020918
     145         -1.110913        1.000000        0.01053548        0.00537066
     146         -1.109631        1.000000        0.01236725        0.00713597
     147         -1.107338        1.000000        0.00941581        0.00517073
     148         -1.107163        1.000000        0.00571357        0.00375120
     149         -1.106911        1.000000        0.00718697        0.00242592
     150         -1.105904        1.000000        0.00696931        0.00332504
     151         -1.104513        1.000000        0.01988752        0.00765052
     152         -1.103753        1.000000        0.02614053        0.00744082
     153         -1.103233        1.000000        0.01103520        0.00754573
     154         -1.101116        1.000000        0.02192346        0.00979183
     155         -1.099878        1.000000        0.01898346        0.01081304
     156         -1.099527        1.000000        0.02437522        0.00755890
     157         -1.099360        1.000000        0.02782282        0.01316771
     158         -1.097449        1.000000        0.00759849        0.00398057
     159         -1.097246        1.000000        0.02094241        0.01657617
     160         -1.096336        1.000000        0.00612261        0.00236524
     161         -1.095776        1.000000        0.00950729        0.00440143
     162         -1.094258        1.000000        0.02830171        0.02125072
     163         -1.093701        1.000000        0.00885164        0.00605054
     164         -1.093107        1.000000        0.02568454        0.01791859
     165         -1.091600        1.000000        0.00993382        0.00561920
     166         -1.090890        1.000000        0.00532527        0.00278879
     167         -1.090283        1.000000        0.00149892        0.00195290
     168         -1.089378        1.000000        0.01764436        0.01180543
     169         -1.088506        1.000000        0.02696754        0.01718093
     170         -1.086931        1.000000        0.01273066        0.00733844
     171         -1.086367        1.000000        0.01064629        0.00744085
     172         -1.085327        1.000000        0.01220744        0.01214525
     173         -1.084766        1.000000        0.00687922        0.00309529
     174         -1.083961        1.000000        0.00262731        0.00163248
     175         -1.082920        1.000000        0.00712114        0.00563554
     176         -1.081700        1.000000        0.02197747        0.01229420
     177         -1.081031        1.000000        0.01319698        0.00668399
     178         -1.080558        1.000000        0.01158109        0.00806457
     179         -1.080415        1.000000        0.01227877        0.00562791
     180         -1.080047        1.000000        0.00973549        0.01004150
     181         -1.077309        1.000000        0.03610749        0.02600575
     182         -1.076601        1.000000        0.00843104        0.00703674
     183         -1.076342        1.000000        0.00846317        0.00411090
     184         -1.076154        1.000000        0.02151051        0.01962972
     185         -1.075469        1.000000        0.02235314        0.01105780
     186         -1.074904        1.000000        0.00839103        0.00384968
     187         -1.074160        1.000000        0.00743878        0.00390845
     188         -1.073364        1.000000        0.00833996        0.00428891
     189         -1.071841        1.000000        0.00941383        0.00919464
     190         -1.071436        1.000000        0.01018237        0.00329806
     191         -1.070358        1.000000        0.01982279        0.00736287
     192         -1.070160        1.000000        0.01695542        0.00430156
     193         -1.069551        1.000000        0.00918378        0.00395783
     194         -1.069042        1.000000        0.01274081        0.00448833
     195         -1.068018        1.000000        0.01566407        0.00671328
     196         -1.067683        1.000000        0.02851664        0.00400861
     197         -1.067094        1.000000        0.01188216        0.00405253
     198         -1.066200        1.000000        0.00698061        0.00395871
     199         -1.065105        1.000000        0.02011247        0.00759854
     200         -1.064600        1.000000        0.01792374        0.01268758
     201         -1.063825        1.000000        0.02172377        0.00315538
     202         -1.063672        1.000000        0.01936645        0.01098790
     203         -1.062915        1.000000        0.02604614        0.01454463
     204         -1.062259        1.000000        0.00603395        0.00337084
     205         -1.061986        1.000000        0.01957392        0.01056309
     206         -1.060822        1.000000        0.00914708        0.00484278
     207         -1.060230        1.000000        0.04391362        0.02569042
     208         -1.059971        1.000000        0.04115818        0.02020660
     209         -1.059399        1.000000        0.00940832        0.00653264
     210         -1.058798        1.000000        0.00473930        0.00286098
     211         -1.058498        1.000000        0.01000752        0.00583138
     212         -1.057049        1.000000        0.02763892        0.01247198
     213         -1.056896        1.000000        0.03711039        0.01379151
     214         -1.056403        1.000000        0.02728030        0.01610636
     215         -1.056079        1.000000        0.00465121        0.00223639
     216         -1.055624        1.000000        0.01038680        0.00678869
     217         -1.055288        1.000000        0.00354445        0.00170376
     218         -1.054828        1.000000        0.00655772        0.00307548
     219         -1.054413        1.000000        0.01390767        0.00806862
     220         -1.053990        1.000000        0.01235566        0.00563197
     221         -1.053598        1.000000        0.00930285        0.00481966
     222         -1.053387        1.000000        0.04356176        0.02261721
     223         -1.052953        1.000000        0.00236761        0.00134928
     224         -1.052779        1.000000        0.00883567        0.00523207
     225         -1.052376        1.000000        0.01862992        0.00895404
     226         -1.052297        1.000000        0.00549402        0.00282492
     227         -1.051819        1.000000        0.00611653        0.00375712
     228         -1.051536        1.000000        0.02785432        0.01349086
     229         -1.051232        1.000000        0.00551968        0.00358513
     230         -1.050581        1.000000        0.00593707        0.00455556
     231         -1.050140        1.000000        0.02128883        0.01049958
     232         -1.049834        1.000000        0.00114942        0.00096288
     233         -1.049588        1.000000        0.00086755        0.00056631
     234         -1.049506        1.000000        0.00031008        0.00015629
     235         -1.048565        1.000000        0.00932915        0.00517290
     236         -1.048103        1.000000        0.01155457        0.00438392
     237         -1.048023        1.000000        0.01183723        0.00373841
     238         -1.047651        1.000000        0.00294514        0.00120025
     239         -1.047305        1.000000        0.00510001        0.00106158
     240         -1.046707        1.000000        0.01193736        0.00525112
     241         -1.046592        1.000000        0.01375184        0.00571394
     242         -1.046281        1.000000        0.00229456        0.00144804
     243         -1.045974        1.000000        0.01252062        0.01360038
     244         -1.045866        1.000000        0.00358628        0.00231795
     245         -1.045771        1.000000        0.00946155        0.00834411
     246         -1.045301        1.000000        0.00397354        0.00575167
     247         -1.045020        1.000000        0.01658760        0.01563542
     248         -1.043956        1.000000        0.01209658        0.02078204
     249         -1.043818        1.000000        0.01179725        0.01049057
     250         -1.043244        1.000000        0.00558602        0.00549697
     251         -1.043119        1.000000        0.00139909        0.00136114
     252         -1.042993        1.000000        0.00372901        0.00692002
     253         -1.042515        1.000000        0.02892420        0.05154877
     254         -1.041302        1.000000        0.00300056        0.00139304
     255         -1.041116        1.000000        0.00913726        0.00371374
     256         -1.040594        1.000000        0.00098947        0.00118449
     257         -1.040094        1.000000        0.00359582        0.00155462
     258         -1.039599        1.000000        0.00333827        0.00131451
     259         -1.039408        1.000000        0.00977873        0.00496071
     260         -1.038970        1.000000        0.00294287        0.00152988
     261         -1.038561        1.000000        0.00048493        0.00024792
     262         -1.038022        1.000000        0.00016722        0.00013039
     263         -1.037841        1.000000        0.00565892        0.00393186
     264         -1.036991        1.000000        0.00109740        0.00058884
     265         -1.036854        1.000000        0.00419669        0.00293077
     266         -1.035910        1.000000        0.00008155        0.00007847
     267         -1.035115        1.000000        0.00549348        0.00309526
     268         -1.034275        1.000000        0.00182819        0.00127058
     269         -1.033697        1.000000        0.00118000        0.00068177
     270         -1.033444        1.000000        0.03696817        0.03346700
     271         -1.033385        1.000000        0.03726835        0.03002586
     272         -1.033262        1.000000        0.00364500        0.00238069
     273         -1.032346        1.000000        0.06336876        0.06343640
     274         -1.031626        1.000000        0.00012363        0.00013890
     275         -1.030746        1.000000        0.00000907        0.00000490
     276         -1.029780        1.000000        0.00005614        0.00002317
     277         -1.028980        1.000000        0.00005476        0.00003009
     278         -1.027492        1.000000        0.00375500        0.00322999
     279         -1.025795        1.000000        0.01032532        0.00462956
     280         -1.023990        1.000000        0.00168168        0.00123114
     281         -1.022755        1.000000        0.00001851        0.00001186
     282         -1.019871        1.000000        0.00000895        0.00000700
     283         -1.017737        1.000000        0.10074552        0.07629297
     284         -1.012409        1.000000        0.00002095        0.00001277
     285         -1.010522        1.000000        0.00000043        0.00000027
     286         -0.880961        1.000000        0.00000678        0.00060778
     287         -0.861761        1.000000        0.00000447        0.00032867
     288         -0.860652        1.000000        0.00000180        0.00059168
     289         -0.854811        1.000000        0.00000177        0.00031619
     290         -0.853189        1.000000        0.00000303        0.00036491
     291         -0.838407        1.000000        0.00000299        0.00033638
     292         -0.837131        1.000000        0.00000175        0.00015508
     293         -0.835422        1.000000        0.00000097        0.00020417
     294         -0.832873        1.000000        0.00000190        0.00032170
     295         -0.813092        1.000000        0.00000206        0.00009770
     296         -0.811309        1.000000        0.00000479        0.00014976
     297         -0.805633        1.000000        0.00000354        0.00061668
     298         -0.800994        1.000000        0.00000282        0.00026405
     299         -0.798544        1.000000        0.00000313        0.00042596
     300         -0.797176        1.000000        0.00000399        0.00012873
     301         -0.796065        1.000000        0.00000086        0.00008600
     302         -0.795247        1.000000        0.00000133        0.00025382
     303         -0.794465        1.000000        0.00000158        0.00006471
     304         -0.792558        1.000000        0.00000299        0.00006715
     305         -0.791532        1.000000        0.00000345        0.00025530
     306         -0.790931        1.000000        0.00000752        0.00015413
     307         -0.790366        1.000000        0.00000266        0.00023535
     308         -0.787916        1.000000        0.00000316        0.00017034
     309         -0.786681        1.000000        0.00000166        0.00017413
     310         -0.785900        1.000000        0.00000472        0.00011237
     311         -0.785502        1.000000        0.00000225        0.00007106
     312         -0.784837        1.000000        0.00000581        0.00016442
     313         -0.783950        1.000000        0.00000705        0.00015439
     314         -0.783030        1.000000        0.00000224        0.00011705
     315         -0.781274        1.000000        0.00000234        0.00012332
     316         -0.780386        1.000000        0.00000212        0.00011578
     317         -0.779166        1.000000        0.00000558        0.00009269
     318         -0.778511        1.000000        0.00000538        0.00017139
     319         -0.774158        1.000000        0.00000166        0.00004266
     320         -0.771889        1.000000        0.00000209        0.00007672
     321         -0.771572        1.000000        0.00000174        0.00006764
     322         -0.771179        1.000000        0.00000170        0.00006003
     323         -0.768785        1.000000        0.00000246        0.00005806
     324         -0.767359        1.000000        0.00000356        0.00005799
     325         -0.766584        1.000000        0.00000222        0.00005278
     326         -0.766329        1.000000        0.00000298        0.00003266
     327         -0.765063        1.000000        0.00000954        0.00009269
     328         -0.764345        1.000000        0.00000251        0.00005042
     329         -0.763991        1.000000        0.00000146        0.00002193
     330         -0.763040        1.000000        0.00000276        0.00005091
     331         -0.762394        1.000000        0.00000646        0.00006520
     332         -0.761901        1.000000        0.00000455        0.00005197
     333         -0.761725        1.000000        0.00000169        0.00002102
     334         -0.760117        1.000000        0.00000399        0.00004250
     335         -0.759732        1.000000        0.00000240        0.00004872
     336         -0.759057        1.000000        0.00000262        0.00005322
     337         -0.757838        1.000000        0.00000312        0.00004298
     338         -0.754831        1.000000        0.00000502        0.00005103
     339         -0.753708        1.000000        0.00000187        0.00001785
     340         -0.753375        1.000000        0.00000452        0.00004731
     341         -0.751671        1.000000        0.00000191        0.00002402
     342         -0.750037        1.000000        0.00000240        0.00002652
     343         -0.749186        1.000000        0.00000244        0.00003943
     344         -0.748889        1.000000        0.00000220        0.00001928
     345         -0.746995        1.000000        0.00000400        0.00002952
     346         -0.718177        1.000000        0.00098054        0.00019389
     347         -0.705802        1.000000        0.00222599        0.00030439
     348         -0.703896        1.000000        0.00068329        0.00012742
     349         -0.699323        1.000000        0.00442033        0.00065517
     350         -0.697252        1.000000        0.00107111        0.00018069
     351         -0.695572        1.000000        0.00186841        0.00029289
     352         -0.690990        1.000000        0.00152649        0.00027136
     353         -0.687608        1.000000        0.00437554        0.00066616
     354         -0.686710        1.000000        0.00309421        0.00049910
     355         -0.685600        1.000000        0.00397342        0.00065501
     356         -0.681933        1.000000        0.00247136        0.00044298
     357         -0.681818        1.000000        0.00289103        0.00044278
     358         -0.680598        1.000000        0.00503711        0.00072615
     359         -0.677631        1.000000        0.00243973        0.00040408
     360         -0.676231        1.000000        0.00416842        0.00051609
     361         -0.675184        1.000000        0.00347851        0.00077956
     362         -0.673914        1.000000        0.00574974        0.00061194
     363         -0.670819        1.000000        0.00389425        0.00065369
     364         -0.668535        1.000000        0.00335999        0.00050736
     365         -0.666745        1.000000        0.00270171        0.00059161
     366         -0.665099        1.000000        0.00602287        0.00088677
     367         -0.664004        1.000000        0.00361557        0.00063341
     368         -0.662322        1.000000        0.00546899        0.00085948
     369         -0.662102        1.000000        0.00427613        0.00046341
     370         -0.660198        1.000000        0.00287715        0.00052849
     371         -0.658748        1.000000        0.00297974        0.00032785
     372         -0.658127        1.000000        0.00628335        0.00100897
     373         -0.656827        1.000000        0.00371434        0.00073264
     374         -0.654564        1.000000        0.00310652        0.00037337
     375         -0.653081        1.000000        0.00278198        0.00041514
     376         -0.649207        1.000000        0.00349519        0.00048824
     377         -0.648953        1.000000        0.00472759        0.00072339