# Projected DOS for list 141 of 1 atoms, at iteration step i = 0, E(Fermi) =    -0.237583 a.u.
#     MO Eigenvalue [a.u.]      Occupation                 s                 p                 d
       1         -3.115895        1.000000        0.00000001        0.00000003        0.00000000
       2         -3.112717        1.000000        0.00000000        0.00000000        0.00000000
       3         -3.112103        1.000000        0.00000004        0.00000003        0.00000000
       4         -3.111180        1.000000        0.00000000        0.00000000        0.00000000
       5         -3.110810        1.000000        0.00000002        0.00000004        0.00000000
       6         -3.110575        1.000000        0.00000000        0.00000000        0.00000000
       7         -3.110067        1.000000        0.00000001        0.00000002        0.00000000
       8         -3.109817        1.000000        0.00000000        0.00000000        0.00000000
       9         -3.109660        1.000000        0.00000000        0.00000000        0.00000000
      10         -3.108831        1.000000        0.00000000        0.00000000        0.00000000
      11         -3.108678        1.000000        0.00000000        0.00000000        0.00000000
      12         -3.108578        1.000000        0.00000000        0.00000000        0.00000000
      13         -3.108350        1.000000        0.00000000        0.00000000        0.00000000
      14         -3.108163        1.000000        0.00000000        0.00000000        0.00000000
      15         -3.107948        1.000000        0.00000000        0.00000000        0.00000000
      16         -3.107865        1.000000        0.00000000        0.00000000        0.00000000
      17         -3.107703        1.000000        0.00000000        0.00000000        0.00000000
      18         -3.107683        1.000000        0.00000000        0.00000000        0.00000000
      19         -3.107641        1.000000        0.00000000        0.00000000        0.00000000
      20         -3.107604        1.000000        0.00000000        0.00000001        0.00000000
      21         -3.107402        1.000000        0.00000000        0.00000000        0.00000000
      22         -3.107115        1.000000        0.00000000        0.00000000        0.00000000
      23         -3.107013        1.000000        0.00000000        0.00000000        0.00000000
      24         -3.106750        1.000000        0.00000000        0.00000000        0.00000000
      25         -3.106619        1.000000        0.00000000        0.00000000        0.00000000
      26         -3.106567        1.000000        0.00000000        0.00000000        0.00000000
      27         -3.106546        1.000000        0.00000000        0.00000000        0.00000000
      28         -3.106258        1.000000        0.00000000        0.00000000        0.00000000
      29         -3.106103        1.000000        0.00000000        0.00000000        0.00000000
      30         -3.104674        1.000000        0.00000000        0.00000000        0.00000000
      31         -1.775522        1.000000        0.00000000        0.00000000        0.00000000
      32         -1.773964        1.000000        0.00000000        0.00000000        0.00000000
      33         -1.773454        1.000000        0.00000000        0.00000000        0.00000000
      34         -1.773008        1.000000        0.00000000        0.00000000        0.00000000
      35         -1.772581        1.000000        0.00000000        0.00000000        0.00000000
      36         -1.772213        1.000000        0.00000000        0.00000000        0.00000000
      37         -1.771852        1.000000        0.00000000        0.00000000        0.00000000
      38         -1.771444        1.000000        0.00000000        0.00000000        0.00000000
      39         -1.771233        1.000000        0.00000000        0.00000000        0.00000000
      40         -1.770977        1.000000        0.00000000        0.00000000        0.00000000
      41         -1.770760        1.000000        0.00000000        0.00000000        0.00000000
      42         -1.770111        1.000000        0.00000000        0.00000000        0.00000000
      43         -1.770034        1.000000        0.00000000        0.00000000        0.00000000
      44         -1.769495        1.000000        0.00000000        0.00000000        0.00000000
      45         -1.769421        1.000000        0.00000000        0.00000000        0.00000000
      46         -1.769063        1.000000        0.00000000        0.00000000        0.00000000
      47         -1.768532        1.000000        0.00000000        0.00000000        0.00000000
      48         -1.768412        1.000000        0.00000000        0.00000000        0.00000000
      49         -1.767811        1.000000        0.00000000        0.00000000        0.00000000
      50         -1.767614        1.000000        0.00000000        0.00000000        0.00000000
      51         -1.767477        1.000000        0.00000000        0.00000000        0.00000000
      52         -1.765531        1.000000        0.00000000        0.00000000        0.00000000
      53         -1.765088        1.000000        0.00000000        0.00000000        0.00000000
      54         -1.764557        1.000000        0.00000000        0.00000000        0.00000000
      55         -1.763772        1.000000        0.00000000        0.00000000        0.00000000
      56         -1.763328        1.000000        0.00000000        0.00000000        0.00000000
      57         -1.762925        1.000000        0.00000000        0.00000000        0.00000000
      58         -1.762506        1.000000        0.00000000        0.00000000        0.00000000
      59         -1.762119        1.000000        0.00000000        0.00000000        0.00000000
      60         -1.762053        1.000000        0.00000000        0.00000000        0.00000000
      61         -1.761895        1.000000        0.00000000        0.00000000        0.00000000
      62         -1.761602        1.000000        0.00000000        0.00000000        0.00000000
      63         -1.761509        1.000000        0.00000000        0.00000000        0.00000000
      64         -1.761377        1.000000        0.00000000        0.00000000        0.00000000
      65         -1.761171        1.000000        0.00000000        0.00000000        0.00000000
      66         -1.760998        1.000000        0.00000000        0.00000000        0.00000000
      67         -1.760877        1.000000        0.00000000        0.00000000        0.00000000
      68         -1.760806        1.000000        0.00000000        0.00000000        0.00000000
      69         -1.760684        1.000000        0.00000000        0.00000000        0.00000000
      70         -1.760645        1.000000        0.00000000        0.00000000        0.00000000
      71         -1.760442        1.000000        0.00000000        0.00000000        0.00000000
      72         -1.760098        1.000000        0.00000000        0.00000000        0.00000000
      73         -1.759962        1.000000        0.00000000        0.00000000        0.00000000
      74         -1.759824        1.000000        0.00000000        0.00000000        0.00000000
      75         -1.759787        1.000000        0.00000000        0.00000000        0.00000000
      76         -1.759638        1.000000        0.00000000        0.00000000        0.00000000
      77         -1.759601        1.000000        0.00000000        0.00000000        0.00000000
      78         -1.759512        1.000000        0.00000000        0.00000000        0.00000000
      79         -1.759406        1.000000        0.00000000        0.00000000        0.00000000
      80         -1.759287        1.000000        0.00000000        0.00000000        0.00000000
      81         -1.759176        1.000000        0.00000000        0.00000000        0.00000000
      82         -1.758872        1.000000        0.00000000        0.00000000        0.00000000
      83         -1.758781        1.000000        0.00000000        0.00000000        0.00000000
      84         -1.758726        1.000000        0.00000000        0.00000000        0.00000000
      85         -1.758559        1.000000        0.00000000        0.00000000        0.00000000
      86         -1.758378        1.000000        0.00000000        0.00000000        0.00000000
      87         -1.758294        1.000000        0.00000000        0.00000000        0.00000000
      88         -1.758087        1.000000        0.00000000        0.00000000        0.00000000
      89         -1.757987        1.000000        0.00000000        0.00000000        0.00000000
      90         -1.757734        1.000000        0.00000000        0.00000000        0.00000000
      91         -1.757649        1.000000        0.00000000        0.00000000        0.00000000
      92         -1.757529        1.000000        0.00000000        0.00000000        0.00000000
      93         -1.757404        1.000000        0.00000000        0.00000000        0.00000000
      94         -1.757324        1.000000        0.00000000        0.00000000        0.00000000
      95         -1.757187        1.000000        0.00000000        0.00000000        0.00000000
      96         -1.757137        1.000000        0.00000000        0.00000000        0.00000000
      97         -1.756770        1.000000        0.00000000        0.00000000        0.00000000
      98         -1.756598        1.000000        0.00000000        0.00000000        0.00000000
      99         -1.756513        1.000000        0.00000000        0.00000000        0.00000000
     100         -1.756186        1.000000        0.00000000        0.00000000        0.00000000
     101         -1.755847        1.000000        0.00000000        0.00000000        0.00000000
     102         -1.755716        1.000000        0.00000000        0.00000000        0.00000000
     103         -1.755306        1.000000        0.00000000        0.00000000        0.00000000
     104         -1.755052        1.000000        0.00000000        0.00000000        0.00000000
     105         -1.754765        1.000000        0.00000000        0.00000000        0.00000000
     106         -1.754094        1.000000        0.00000000        0.00000000        0.00000000
     107         -1.753681        1.000000        0.00000000        0.00000000        0.00000000
     108         -1.753548        1.000000        0.00000000        0.00000000        0.00000000
     109         -1.753256        1.000000        0.00000000        0.00000000        0.00000000
     110         -1.752675        1.000000        0.00000000        0.00000000        0.00000000
     111         -1.752502        1.000000        0.00000000        0.00000000        0.00000000
     112         -1.752253        1.000000        0.00000000        0.00000000        0.00000000
     113         -1.751643        1.000000        0.00000000        0.00000000        0.00000000
     114         -1.751317        1.000000        0.00000000        0.00000000        0.00000000
     115         -1.749193        1.000000        0.00000000        0.00000000        0.00000000
     116         -1.748137        1.000000        0.00000000        0.00000000        0.00000000
     117         -1.747283        1.000000        0.00000000        0.00000000        0.00000000
     118         -1.745962        1.000000        0.00000000        0.00000000        0.00000000
     119         -1.745880        1.000000        0.00000000        0.00000000        0.00000000
     120         -1.744143        1.000000        0.00000000        0.00000000        0.00000000
     121         -1.145318        1.000000        0.00062021        0.00004824        0.00002146
     122         -1.141162        1.000000        0.00002533        0.00004937        0.00000466
     123         -1.135518        1.000000        0.00334811        0.00025186        0.00007561
     124         -1.134356        1.000000        0.00498026        0.00031897        0.00014911
     125         -1.132797        1.000000        0.00067264        0.00005834        0.00002043
     126         -1.131675        1.000000        0.00278536        0.00039755        0.00009248
     127         -1.130657        1.000000        0.00068047        0.00048157        0.00004902
     128         -1.129329        1.000000        0.00282115        0.00051777        0.00008662
     129         -1.127805        1.000000        0.00214699        0.00135938        0.00015263
     130         -1.126970        1.000000        0.00118010        0.00014188        0.00009206
     131         -1.125100        1.000000        0.00247257        0.00058116        0.00007539
     132         -1.124640        1.000000        0.00788037        0.00157852        0.00023724
     133         -1.122028        1.000000        0.00081214        0.00089549        0.00005137
     134         -1.120887        1.000000        0.00486987        0.00052249        0.00012881
     135         -1.119308        1.000000        0.00001552        0.00003088        0.00001189
     136         -1.118408        1.000000        0.00321208        0.00012194        0.00008747
     137         -1.117769        1.000000        0.00018918        0.00014684        0.00000507
     138         -1.116570        1.000000        0.00090344        0.00202601        0.00002927
     139         -1.115096        1.000000        0.00017659        0.00005545        0.00000528
     140         -1.114402        1.000000        0.00154627        0.00009384        0.00003369
     141         -1.114039        1.000000        0.00841680        0.00026439        0.00025824
     142         -1.112381        1.000000        0.00113373        0.00016709        0.00004249
     143         -1.111588        1.000000        0.00299453        0.00012249        0.00007225
     144         -1.111356        1.000000        0.00012357        0.00009678        0.00000938
     145         -1.110913        1.000000        0.00174646        0.00004192        0.00006405
     146         -1.109631        1.000000        0.00039561        0.00020306        0.00001181
     147         -1.107338        1.000000        0.00092133        0.00020830        0.00002495
     148         -1.107163        1.000000        0.00006668        0.00004316        0.00000498
     149         -1.106911        1.000000        0.00003527        0.00014685        0.00000097
     150         -1.105904        1.000000        0.00043264        0.00002245        0.00001115
     151         -1.104513        1.000000        0.00023781        0.00001988        0.00000423
     152         -1.103753        1.000000        0.00000282        0.00008173        0.00000225
     153         -1.103233        1.000000        0.00408195        0.00025107        0.00005374
     154         -1.101116        1.000000        0.00351181        0.00045682        0.00005638
     155         -1.099878        1.000000        0.00059945        0.00010329        0.00006500
     156         -1.099527        1.000000        0.00530426        0.00018198        0.00008959
     157         -1.099360        1.000000        0.00078849        0.00103767        0.00006202
     158         -1.097449        1.000000        0.00282128        0.00017890        0.00009251
     159         -1.097246        1.000000        0.00184522        0.00089574        0.00011639
     160         -1.096336        1.000000        0.00067269        0.00022353        0.00004308
     161         -1.095776        1.000000        0.00000535        0.00001468        0.00000900
     162         -1.094258        1.000000        0.00006716        0.00037568        0.00001523
     163         -1.093701        1.000000        0.00094569        0.00040604        0.00000990
     164         -1.093107        1.000000        0.00888904        0.00028610        0.00009215
     165         -1.091600        1.000000        0.00080603        0.00027958        0.00002915
     166         -1.090890        1.000000        0.00453708        0.00019193        0.00008041
     167         -1.090283        1.000000        0.00144656        0.00005731        0.00001325
     168         -1.089378        1.000000        0.00200132        0.00128097        0.00009148
     169         -1.088506        1.000000        0.00011313        0.00003678        0.00001463
     170         -1.086931        1.000000        0.00510831        0.00014700        0.00006312
     171         -1.086367        1.000000        0.00200928        0.00127408        0.00004685
     172         -1.085327        1.000000        0.01117818        0.00068725        0.00011432
     173         -1.084766        1.000000        0.00007210        0.00000444        0.00000567
     174         -1.083961        1.000000        0.00000079        0.00009902        0.00000655
     175         -1.082920        1.000000        0.00018171        0.00008563        0.00004557
     176         -1.081700        1.000000        0.00001091        0.00000573        0.00001361
     177         -1.081031        1.000000        0.00066896        0.00073943        0.00005055
     178         -1.080558        1.000000        0.00293830        0.00023154        0.00005176
     179         -1.080415        1.000000        0.00011357        0.00015185        0.00001911
     180         -1.080047        1.000000        0.00044396        0.00045706        0.00005495
     181         -1.077309        1.000000        0.00006495        0.00001408        0.00000573
     182         -1.076601        1.000000        0.00038607        0.00041618        0.00005295
     183         -1.076342        1.000000        0.00033837        0.00016701        0.00004156
     184         -1.076154        1.000000        0.00041138        0.00004612        0.00001166
     185         -1.075469        1.000000        0.00028008        0.00004713        0.00001473
     186         -1.074904        1.000000        0.00049263        0.00012604        0.00000708
     187         -1.074160        1.000000        0.00051178        0.00003414        0.00001394
     188         -1.073364        1.000000        0.00008641        0.00003585        0.00002627
     189         -1.071841        1.000000        0.00002390        0.00006230        0.00002705
     190         -1.071436        1.000000        0.00022331        0.00003652        0.00001821
     191         -1.070358        1.000000        0.00077011        0.00002323        0.00000654
     192         -1.070160        1.000000        0.00201338        0.00014422        0.00006420
     193         -1.069551        1.000000        0.00000660        0.00007317        0.00004124
     194         -1.069042        1.000000        0.00006630        0.00002368        0.00001687
     195         -1.068018        1.000000        0.00000157        0.00003861        0.00010073
     196         -1.067683        1.000000        0.00060712        0.00003928        0.00005506
     197         -1.067094        1.000000        0.00000282        0.00002107        0.00000468
     198         -1.066200        1.000000        0.00107650        0.00002832        0.00001375
     199         -1.065105        1.000000        0.00015181        0.00001767        0.00000197
     200         -1.064600        1.000000        0.00024988        0.00034170        0.00013272
     201         -1.063825        1.000000        0.00029883        0.00002204        0.00000873
     202         -1.063672        1.000000        0.00038403        0.00013468        0.00006711
     203         -1.062915        1.000000        0.00030093        0.00013196        0.00024185
     204         -1.062259        1.000000        0.00000156        0.00002596        0.00002209
     205         -1.061986        1.000000        0.00004754        0.00001873        0.00002625
     206         -1.060822        1.000000        0.00161547        0.00002391        0.00002701
     207         -1.060230        1.000000        0.00390051        0.00033200        0.00028272
     208         -1.059971        1.000000        0.00100361        0.00005442        0.00006339
     209         -1.059399        1.000000        0.00472020        0.00010255        0.00003836
     210         -1.058798        1.000000        0.00000406        0.00002758        0.00006059
     211         -1.058498        1.000000        0.00047409        0.00003952        0.00003106
     212         -1.057049        1.000000        0.00000744        0.00010639        0.00000979
     213         -1.056896        1.000000        0.00002888        0.00004115        0.00005054
     214         -1.056403        1.000000        0.00085808        0.00000727        0.00002636
     215         -1.056079        1.000000        0.00102657        0.00003454        0.00000566
     216         -1.055624        1.000000        0.00139795        0.00008275        0.00003623
     217         -1.055288        1.000000        0.00098556        0.00001685        0.00000454
     218         -1.054828        1.000000        0.00010000        0.00001344        0.00002743
     219         -1.054413        1.000000        0.00056388        0.00003114        0.00002716
     220         -1.053990        1.000000        0.00194892        0.00002726        0.00000413
     221         -1.053598        1.000000        0.00094297        0.00001559        0.00000618
     222         -1.053387        1.000000        0.00497736        0.00010482        0.00001307
     223         -1.052953        1.000000        0.00056940        0.00003450        0.00002397
     224         -1.052779        1.000000        0.00048069        0.00002451        0.00000678
     225         -1.052376        1.000000        0.00221712        0.00004841        0.00001740
     226         -1.052297        1.000000        0.00029410        0.00001421        0.00001148
     227         -1.051819        1.000000        0.00571130        0.00007874        0.00003658
     228         -1.051536        1.000000        0.00029094        0.00001866        0.00004141
     229         -1.051232        1.000000        0.00013345        0.00008957        0.00005734
     230         -1.050581        1.000000        0.00082431        0.00005536        0.00002122
     231         -1.050140        1.000000        0.00123839        0.00004250        0.00001539
     232         -1.049834        1.000000        0.00478996        0.00013308        0.00003077
     233         -1.049588        1.000000        0.00000083        0.00000034        0.00000014
     234         -1.049506        1.000000        0.00080892        0.00000962        0.00000595
     235         -1.048565        1.000000        0.00122578        0.00002708        0.00001706
     236         -1.048103        1.000000        0.00064561        0.00002558        0.00001020
     237         -1.048023        1.000000        0.00235090        0.00004053        0.00000976
     238         -1.047651        1.000000        0.00026580        0.00001337        0.00002921
     239         -1.047305        1.000000        0.00127927        0.00001593        0.00000421
     240         -1.046707        1.000000        0.00010256        0.00000493        0.00000095
     241         -1.046592        1.000000        0.00009148        0.00001199        0.00000934
     242         -1.046281        1.000000        0.00074598        0.00001265        0.00000135
     243         -1.045974        1.000000        0.00183284        0.00007565        0.00003127
     244         -1.045866        1.000000        0.00285765        0.00004539        0.00000702
     245         -1.045771        1.000000        0.00237025        0.00003698        0.00000294
     246         -1.045301        1.000000        0.00037796        0.00001703        0.00000452
     247         -1.045020        1.000000        0.00004273        0.00000812        0.00000280
     248         -1.043956        1.000000        0.00101252        0.00001293        0.00000166
     249         -1.043818        1.000000        0.05938853        0.00066455        0.00010841
     250         -1.043244        1.000000        0.10319774        0.00109226        0.00011890
     251         -1.043119        1.000000        0.00033867        0.00000415        0.00000391
     252         -1.042993        1.000000        0.00120592        0.00002047        0.00000850
     253         -1.042515        1.000000        0.03661991        0.00034442        0.00001998
     254         -1.041302        1.000000        0.00096597        0.00001034        0.00000050
     255         -1.041116        1.000000        0.00064287        0.00000999        0.00000243
     256         -1.040594        1.000000        0.00209045        0.00002122        0.00000826
     257         -1.040094        1.000000        0.00090553        0.00001655        0.00001228
     258         -1.039599        1.000000        0.00327591        0.00003388        0.00001604
     259         -1.039408        1.000000        0.00046637        0.00000588        0.00000148
     260         -1.038970        1.000000        0.00248688        0.00002408        0.00000221
     261         -1.038561        1.000000        0.00143377        0.00001256        0.00000182
     262         -1.038022        1.000000        0.00001714        0.00000073        0.00000080
     263         -1.037841        1.000000        0.15846344        0.00143972        0.00036907
     264         -1.036991        1.000000        0.00189425        0.00001853        0.00000818
     265         -1.036854        1.000000        0.00023254        0.00000246        0.00000139
     266         -1.035910        1.000000        0.00013332        0.00000128        0.00000013
     267         -1.035115        1.000000        0.00207241        0.00002009        0.00000503
     268         -1.034275        1.000000        0.00117909        0.00001115        0.00000145
     269         -1.033697        1.000000        0.00006812        0.00000155        0.00000133
     270         -1.033444        1.000000        0.00016690        0.00000302        0.00000022
     271         -1.033385        1.000000        0.00000457        0.00000081        0.00000085
     272         -1.033262        1.000000        0.00012406        0.00000143        0.00000018
     273         -1.032346        1.000000        0.00000156        0.00000037        0.00000024
     274         -1.031626        1.000000        0.00000201        0.00000007        0.00000009
     275         -1.030746        1.000000        0.00000016        0.00000001        0.00000002
     276         -1.029780        1.000000        0.00003591        0.00000052        0.00000010
     277         -1.028980        1.000000        0.00001748        0.00000035        0.00000010
     278         -1.027492        1.000000        0.00002357        0.00000317        0.00000128
     279         -1.025795        1.000000        0.00137191        0.00002676        0.00003998
     280         -1.023990        1.000000        0.00002471        0.00000042        0.00000071
     281         -1.022755        1.000000        0.00000325        0.00000006        0.00000003
     282         -1.019871        1.000000        0.00000008        0.00000000        0.00000000
     283         -1.017737        1.000000        0.00010433        0.00000490        0.00000027
     284         -1.012409        1.000000        0.00000002        0.00000007        0.00000004
     285         -1.010522        1.000000        0.00000002        0.00000000        0.00000000
     286         -0.880961        1.000000        0.00000015        0.00000014        0.00000001
     287         -0.861761        1.000000        0.00000006        0.00000007        0.00000000
     288         -0.860652        1.000000        0.00000006        0.00000008        0.00000001
     289         -0.854811        1.000000        0.00000001        0.00000003        0.00000000
     290         -0.853189        1.000000        0.00000003        0.00000004        0.00000000
     291         -0.838407        1.000000        0.00000000        0.00000000        0.00000000
     292         -0.837131        1.000000        0.00000000        0.00000001        0.00000000
     293         -0.835422        1.000000        0.00000001        0.00000002        0.00000000
     294         -0.832873        1.000000        0.00000003        0.00000006        0.00000000
     295         -0.813092        1.000000        0.00000001        0.00000001        0.00000000
     296         -0.811309        1.000000        0.00000001        0.00000002        0.00000000
     297         -0.805633        1.000000        0.00000021        0.00000017        0.00000001
     298         -0.800994        1.000000        0.00000000        0.00000001        0.00000000
     299         -0.798544        1.000000        0.00000002        0.00000002        0.00000000
     300         -0.797176        1.000000        0.00000000        0.00000000        0.00000000
     301         -0.796065        1.000000        0.00000003        0.00000004        0.00000000
     302         -0.795247        1.000000        0.00000001        0.00000001        0.00000000
     303         -0.794465        1.000000        0.00000001        0.00000000        0.00000000
     304         -0.792558        1.000000        0.00000000        0.00000000        0.00000000
     305         -0.791532        1.000000        0.00000001        0.00000001        0.00000000
     306         -0.790931        1.000000        0.00000000        0.00000000        0.00000000
     307         -0.790366        1.000000        0.00000000        0.00000000        0.00000000