# Projected DOS for list 123 of 1 atoms, at iteration step i = 0, E(Fermi) =    -0.237583 a.u.
#     MO Eigenvalue [a.u.]      Occupation                 s                 p                 d
       1         -3.115895        1.000000        0.00000000        0.00000000        0.00000000
       2         -3.112717        1.000000        0.00000000        0.00000000        0.00000000
       3         -3.112103        1.000000        0.00000000        0.00000000        0.00000000
       4         -3.111180        1.000000        0.00000000        0.00000000        0.00000000
       5         -3.110810        1.000000        0.00000000        0.00000000        0.00000000
       6         -3.110575        1.000000        0.00000000        0.00000000        0.00000000
       7         -3.110067        1.000000        0.00000000        0.00000000        0.00000000
       8         -3.109817        1.000000        0.00000000        0.00000000        0.00000000
       9         -3.109660        1.000000        0.00000000        0.00000000        0.00000000
      10         -3.108831        1.000000        0.00000000        0.00000000        0.00000000
      11         -3.108678        1.000000        0.00000000        0.00000000        0.00000000
      12         -3.108578        1.000000        0.00000000        0.00000000        0.00000000
      13         -3.108350        1.000000        0.00000000        0.00000000        0.00000000
      14         -3.108163        1.000000        0.00000000        0.00000000        0.00000000
      15         -3.107948        1.000000        0.00000000        0.00000000        0.00000000
      16         -3.107865        1.000000        0.00000000        0.00000000        0.00000000
      17         -3.107703        1.000000        0.00000000        0.00000000        0.00000000
      18         -3.107683        1.000000        0.00000000        0.00000000        0.00000000
      19         -3.107641        1.000000        0.00000000        0.00000000        0.00000000
      20         -3.107604        1.000000        0.00000000        0.00000000        0.00000000
      21         -3.107402        1.000000        0.00000000        0.00000000        0.00000000
      22         -3.107115        1.000000        0.00000000        0.00000000        0.00000000
      23         -3.107013        1.000000        0.00000000        0.00000000        0.00000000
      24         -3.106750        1.000000        0.00000000        0.00000000        0.00000000
      25         -3.106619        1.000000        0.00000000        0.00000000        0.00000000
      26         -3.106567        1.000000        0.00000000        0.00000000        0.00000000
      27         -3.106546        1.000000        0.00000000        0.00000000        0.00000000
      28         -3.106258        1.000000        0.00000000        0.00000000        0.00000000
      29         -3.106103        1.000000        0.00000000        0.00000000        0.00000000
      30         -3.104674        1.000000        0.00000000        0.00000000        0.00000000
      31         -1.775522        1.000000        0.00000000        0.00000000        0.00000000
      32         -1.773964        1.000000        0.00000000        0.00000000        0.00000000
      33         -1.773454        1.000000        0.00000000        0.00000000        0.00000000
      34         -1.773008        1.000000        0.00000000        0.00000000        0.00000000
      35         -1.772581        1.000000        0.00000000        0.00000000        0.00000000
      36         -1.772213        1.000000        0.00000000        0.00000000        0.00000000
      37         -1.771852        1.000000        0.00000000        0.00000000        0.00000000
      38         -1.771444        1.000000        0.00000000        0.00000000        0.00000000
      39         -1.771233        1.000000        0.00000000        0.00000000        0.00000000
      40         -1.770977        1.000000        0.00000000        0.00000000        0.00000000
      41         -1.770760        1.000000        0.00000000        0.00000000        0.00000000
      42         -1.770111        1.000000        0.00000000        0.00000000        0.00000000
      43         -1.770034        1.000000        0.00000000        0.00000000        0.00000000
      44         -1.769495        1.000000        0.00000000        0.00000000        0.00000000
      45         -1.769421        1.000000        0.00000000        0.00000000        0.00000000
      46         -1.769063        1.000000        0.00000000        0.00000000        0.00000000
      47         -1.768532        1.000000        0.00000000        0.00000000        0.00000000
      48         -1.768412        1.000000        0.00000000        0.00000000        0.00000000
      49         -1.767811        1.000000        0.00000000        0.00000000        0.00000000
      50         -1.767614        1.000000        0.00000000        0.00000000        0.00000000
      51         -1.767477        1.000000        0.00000000        0.00000000        0.00000000
      52         -1.765531        1.000000        0.00000000        0.00000000        0.00000000
      53         -1.765088        1.000000        0.00000000        0.00000000        0.00000000
      54         -1.764557        1.000000        0.00000000        0.00000000        0.00000000
      55         -1.763772        1.000000        0.00000000        0.00000000        0.00000000
      56         -1.763328        1.000000        0.00000000        0.00000000        0.00000000
      57         -1.762925        1.000000        0.00000000        0.00000000        0.00000000
      58         -1.762506        1.000000        0.00000000        0.00000000        0.00000000
      59         -1.762119        1.000000        0.00000000        0.00000000        0.00000000
      60         -1.762053        1.000000        0.00000000        0.00000000        0.00000000
      61         -1.761895        1.000000        0.00000000        0.00000000        0.00000000
      62         -1.761602        1.000000        0.00000000        0.00000000        0.00000000
      63         -1.761509        1.000000        0.00000000        0.00000000        0.00000000
      64         -1.761377        1.000000        0.00000000        0.00000000        0.00000000
      65         -1.761171        1.000000        0.00000000        0.00000000        0.00000000
      66         -1.760998        1.000000        0.00000000        0.00000000        0.00000000
      67         -1.760877        1.000000        0.00000000        0.00000000        0.00000000
      68         -1.760806        1.000000        0.00000000        0.00000000        0.00000000
      69         -1.760684        1.000000        0.00000000        0.00000000        0.00000000
      70         -1.760645        1.000000        0.00000000        0.00000000        0.00000000
      71         -1.760442        1.000000        0.00000000        0.00000000        0.00000000
      72         -1.760098        1.000000        0.00000000        0.00000000        0.00000000
      73         -1.759962        1.000000        0.00000000        0.00000000        0.00000000
      74         -1.759824        1.000000        0.00000000        0.00000000        0.00000000
      75         -1.759787        1.000000        0.00000000        0.00000000        0.00000000
      76         -1.759638        1.000000        0.00000000        0.00000000        0.00000000
      77         -1.759601        1.000000        0.00000000        0.00000000        0.00000000
      78         -1.759512        1.000000        0.00000000        0.00000000        0.00000000
      79         -1.759406        1.000000        0.00000000        0.00000000        0.00000000
      80         -1.759287        1.000000        0.00000000        0.00000000        0.00000000
      81         -1.759176        1.000000        0.00000000        0.00000000        0.00000000
      82         -1.758872        1.000000        0.00000000        0.00000000        0.00000000
      83         -1.758781        1.000000        0.00000000        0.00000000        0.00000000
      84         -1.758726        1.000000        0.00000000        0.00000000        0.00000000
      85         -1.758559        1.000000        0.00000000        0.00000000        0.00000000
      86         -1.758378        1.000000        0.00000000        0.00000000        0.00000000
      87         -1.758294        1.000000        0.00000000        0.00000000        0.00000000
      88         -1.758087        1.000000        0.00000000        0.00000000        0.00000000
      89         -1.757987        1.000000        0.00000000        0.00000000        0.00000000
      90         -1.757734        1.000000        0.00000000        0.00000000        0.00000000
      91         -1.757649        1.000000        0.00000000        0.00000000        0.00000000
      92         -1.757529        1.000000        0.00000000        0.00000000        0.00000000
      93         -1.757404        1.000000        0.00000000        0.00000000        0.00000000
      94         -1.757324        1.000000        0.00000000        0.00000000        0.00000000
      95         -1.757187        1.000000        0.00000000        0.00000000        0.00000000
      96         -1.757137        1.000000        0.00000000        0.00000000        0.00000000
      97         -1.756770        1.000000        0.00000000        0.00000000        0.00000000
      98         -1.756598        1.000000        0.00000000        0.00000000        0.00000000
      99         -1.756513        1.000000        0.00000000        0.00000000        0.00000000
     100         -1.756186        1.000000        0.00000000        0.00000000        0.00000000
     101         -1.755847        1.000000        0.00000000        0.00000000        0.00000000
     102         -1.755716        1.000000        0.00000000        0.00000000        0.00000000
     103         -1.755306        1.000000        0.00000000        0.00000000        0.00000000
     104         -1.755052        1.000000        0.00000000        0.00000000        0.00000000
     105         -1.754765        1.000000        0.00000000        0.00000000        0.00000000
     106         -1.754094        1.000000        0.00000000        0.00000000        0.00000000
     107         -1.753681        1.000000        0.00000000        0.00000000        0.00000000
     108         -1.753548        1.000000        0.00000000        0.00000000        0.00000000
     109         -1.753256        1.000000        0.00000000        0.00000000        0.00000000
     110         -1.752675        1.000000        0.00000000        0.00000000        0.00000000
     111         -1.752502        1.000000        0.00000000        0.00000000        0.00000000
     112         -1.752253        1.000000        0.00000000        0.00000000        0.00000000
     113         -1.751643        1.000000        0.00000000        0.00000000        0.00000000
     114         -1.751317        1.000000        0.00000000        0.00000000        0.00000000
     115         -1.749193        1.000000        0.00000000        0.00000000        0.00000000
     116         -1.748137        1.000000        0.00000000        0.00000000        0.00000000
     117         -1.747283        1.000000        0.00000000        0.00000000        0.00000000
     118         -1.745962        1.000000        0.00000000        0.00000000        0.00000000
     119         -1.745880        1.000000        0.00000000        0.00000000        0.00000000
     120         -1.744143        1.000000        0.00000000        0.00000000        0.00000000
     121         -1.145318        1.000000        0.03470065        0.00246419        0.00095382
     122         -1.141162        1.000000        0.00339795        0.00322571        0.00018811
     123         -1.135518        1.000000        0.00038633        0.00009097        0.00001581
     124         -1.134356        1.000000        0.00056171        0.00018893        0.00001293
     125         -1.132797        1.000000        0.01307500        0.00271603        0.00037383
     126         -1.131675        1.000000        0.00055916        0.00039945        0.00003231
     127         -1.130657        1.000000        0.00030191        0.00049339        0.00005982
     128         -1.129329        1.000000        0.00079468        0.00035209        0.00003351
     129         -1.127805        1.000000        0.00024274        0.00021142        0.00004264
     130         -1.126970        1.000000        0.00079455        0.00016826        0.00003193
     131         -1.125100        1.000000        0.00908314        0.00096131        0.00011965
     132         -1.124640        1.000000        0.00257727        0.00141104        0.00015033
     133         -1.122028        1.000000        0.00838371        0.00127758        0.00017187
     134         -1.120887        1.000000        0.00036077        0.00027309        0.00001073
     135         -1.119308        1.000000        0.00068156        0.00018387        0.00005134
     136         -1.118408        1.000000        0.00019266        0.00001333        0.00000349
     137         -1.117769        1.000000        0.00013709        0.00006176        0.00003010
     138         -1.116570        1.000000        0.00054192        0.00015569        0.00002901
     139         -1.115096        1.000000        0.00298271        0.00049506        0.00003128
     140         -1.114402        1.000000        0.00000127        0.00008119        0.00000035
     141         -1.114039        1.000000        0.00369951        0.00021161        0.00014803
     142         -1.112381        1.000000        0.00001682        0.00000620        0.00000110
     143         -1.111588        1.000000        0.00002028        0.00005136        0.00000509
     144         -1.111356        1.000000        0.00186071        0.00023057        0.00007919
     145         -1.110913        1.000000        0.00360039        0.00022034        0.00008501
     146         -1.109631        1.000000        0.00037763        0.00016528        0.00001151
     147         -1.107338        1.000000        0.00005918        0.00007633        0.00006264
     148         -1.107163        1.000000        0.00679857        0.00035706        0.00004599
     149         -1.106911        1.000000        0.00096497        0.00003235        0.00001432
     150         -1.105904        1.000000        0.00001461        0.00035887        0.00004808
     151         -1.104513        1.000000        0.00126613        0.00045771        0.00002527
     152         -1.103753        1.000000        0.00026234        0.00010638        0.00001488
     153         -1.103233        1.000000        0.00575080        0.00007987        0.00013695
     154         -1.101116        1.000000        0.00043790        0.00016239        0.00002074
     155         -1.099878        1.000000        0.00271968        0.00016774        0.00001790
     156         -1.099527        1.000000        0.00016198        0.00013647        0.00001805
     157         -1.099360        1.000000        0.00377627        0.00021307        0.00001579
     158         -1.097449        1.000000        0.00014547        0.00022203        0.00000812
     159         -1.097246        1.000000        0.00005594        0.00010259        0.00001736
     160         -1.096336        1.000000        0.00194985        0.00009028        0.00008752
     161         -1.095776        1.000000        0.00053987        0.00003296        0.00003018
     162         -1.094258        1.000000        0.00029854        0.00000418        0.00000754
     163         -1.093701        1.000000        0.00393148        0.00100191        0.00010433
     164         -1.093107        1.000000        0.00238103        0.00020584        0.00003146
     165         -1.091600        1.000000        0.01409151        0.00039000        0.00006047
     166         -1.090890        1.000000        0.00000064        0.00016784        0.00008827
     167         -1.090283        1.000000        0.00141569        0.00040710        0.00011142
     168         -1.089378        1.000000        0.00103174        0.00005973        0.00002749
     169         -1.088506        1.000000        0.00128103        0.00006421        0.00003396
     170         -1.086931        1.000000        0.00737361        0.00015373        0.00005014
     171         -1.086367        1.000000        0.00330564        0.00034498        0.00002935
     172         -1.085327        1.000000        0.00357145        0.00008839        0.00010771
     173         -1.084766        1.000000        0.00059352        0.00003452        0.00001670
     174         -1.083961        1.000000        0.00003406        0.00002939        0.00000586
     175         -1.082920        1.000000        0.00134629        0.00067607        0.00001672
     176         -1.081700        1.000000        0.00006151        0.00000816        0.00001955
     177         -1.081031        1.000000        0.00079122        0.00001866        0.00006540
     178         -1.080558        1.000000        0.01038409        0.00028427        0.00015005
     179         -1.080415        1.000000        0.00073626        0.00008927        0.00005786
     180         -1.080047        1.000000        0.00069864        0.00009913        0.00010194
     181         -1.077309        1.000000        0.00107636        0.00003108        0.00001283
     182         -1.076601        1.000000        0.00044305        0.00003609        0.00003208
     183         -1.076342        1.000000        0.00250334        0.00002649        0.00004099
     184         -1.076154        1.000000        0.00333616        0.00006047        0.00010035
     185         -1.075469        1.000000        0.00679308        0.00005592        0.00006751
     186         -1.074904        1.000000        0.00242068        0.00007986        0.00007607
     187         -1.074160        1.000000        0.00220925        0.00029118        0.00007691
     188         -1.073364        1.000000        0.01257817        0.00023422        0.00007789
     189         -1.071841        1.000000        0.00006574        0.00017494        0.00004020
     190         -1.071436        1.000000        0.00135493        0.00024909        0.00003828
     191         -1.070358        1.000000        0.00416728        0.00010237        0.00002317
     192         -1.070160        1.000000        0.00009332        0.00001823        0.00001475
     193         -1.069551        1.000000        0.00071509        0.00013425        0.00006574
     194         -1.069042        1.000000        0.01350350        0.00020297        0.00005073
     195         -1.068018        1.000000        0.01112144        0.00012362        0.00001281
     196         -1.067683        1.000000        0.02622327        0.00030107        0.00004644
     197         -1.067094        1.000000        0.00251716        0.00007760        0.00000974
     198         -1.066200        1.000000        0.00307756        0.00004084        0.00004776
     199         -1.065105        1.000000        0.03968668        0.00034994        0.00006098
     200         -1.064600        1.000000        0.00069449        0.00004465        0.00001951
     201         -1.063825        1.000000        0.00009216        0.00006250        0.00002090
     202         -1.063672        1.000000        0.00176544        0.00002496        0.00001033
     203         -1.062915        1.000000        0.00645031        0.00006359        0.00002900
     204         -1.062259        1.000000        0.07647481        0.00081841        0.00007009
     205         -1.061986        1.000000        0.00226589        0.00002599        0.00000356
     206         -1.060822        1.000000        0.00691594        0.00012143        0.00006025
     207         -1.060230        1.000000        0.00935045        0.00009297        0.00001286
     208         -1.059971        1.000000        0.00598745        0.00007058        0.00000301
     209         -1.059399        1.000000        0.00918069        0.00009684        0.00001287
     210         -1.058798        1.000000        0.04716514        0.00049955        0.00004073
     211         -1.058498        1.000000        0.01547081        0.00014471        0.00001327
     212         -1.057049        1.000000        0.00031249        0.00001413        0.00000762
     213         -1.056896        1.000000        0.00231554        0.00002079        0.00000736
     214         -1.056403        1.000000        0.00146746        0.00002096        0.00000354
     215         -1.056079        1.000000        0.00254737        0.00003730        0.00000588
     216         -1.055624        1.000000        0.00110952        0.00005366        0.00000913
     217         -1.055288        1.000000        0.01406050        0.00015433        0.00001478
     218         -1.054828        1.000000        0.00000183        0.00002874        0.00000430
     219         -1.054413        1.000000        0.00027407        0.00000637        0.00001800
     220         -1.053990        1.000000        0.00046857        0.00002969        0.00000271
     221         -1.053598        1.000000        0.00031457        0.00003352        0.00000507
     222         -1.053387        1.000000        0.00000181        0.00000862        0.00001032
     223         -1.052953        1.000000        0.00443166        0.00007274        0.00001269
     224         -1.052779        1.000000        0.00210287        0.00002848        0.00000907
     225         -1.052376        1.000000        0.00130723        0.00002308        0.00000368
     226         -1.052297        1.000000        0.00000178        0.00000223        0.00000259
     227         -1.051819        1.000000        0.01267720        0.00011316        0.00004202
     228         -1.051536        1.000000        0.00040204        0.00001172        0.00000472
     229         -1.051232        1.000000        0.00165044        0.00002215        0.00004572
     230         -1.050581        1.000000        0.00133478        0.00016438        0.00003528
     231         -1.050140        1.000000        0.00050742        0.00002603        0.00004451
     232         -1.049834        1.000000        0.00001594        0.00002495        0.00000471
     233         -1.049588        1.000000        0.00040604        0.00001428        0.00000242
     234         -1.049506        1.000000        0.00015876        0.00000334        0.00000516
     235         -1.048565        1.000000        0.00015461        0.00004586        0.00000500
     236         -1.048103        1.000000        0.00239849        0.00010867        0.00000845
     237         -1.048023        1.000000        0.00139331        0.00002471        0.00001901
     238         -1.047651        1.000000        0.00001289        0.00005341        0.00001461
     239         -1.047305        1.000000        0.00179916        0.00003560        0.00004324
     240         -1.046707        1.000000        0.00124614        0.00001159        0.00000822
     241         -1.046592        1.000000        0.00011913        0.00002728        0.00001396
     242         -1.046281        1.000000        0.00082560        0.00001290        0.00000324
     243         -1.045974        1.000000        0.00020804        0.00001421        0.00001220
     244         -1.045866        1.000000        0.00075589        0.00003083        0.00002277
     245         -1.045771        1.000000        0.00007312        0.00000434        0.00000334
     246         -1.045301        1.000000        0.01263039        0.00034600        0.00020771
     247         -1.045020        1.000000        0.00023254        0.00001117        0.00000778
     248         -1.043956        1.000000        0.00025857        0.00000247        0.00000271
     249         -1.043818        1.000000        0.00041553        0.00002718        0.00000937
     250         -1.043244        1.000000        0.00008165        0.00000301        0.00000233
     251         -1.043119        1.000000        0.00019662        0.00001643        0.00000768
     252         -1.042993        1.000000        0.00030317        0.00001779        0.00000757
     253         -1.042515        1.000000        0.00026966        0.00000408        0.00000483
     254         -1.041302        1.000000        0.00007294        0.00000232        0.00000188
     255         -1.041116        1.000000        0.00052072        0.00000848        0.00000765
     256         -1.040594        1.000000        0.00003629        0.00000100        0.00000038
     257         -1.040094        1.000000        0.00000076        0.00000112        0.00000067
     258         -1.039599        1.000000        0.00011930        0.00000319        0.00000118
     259         -1.039408        1.000000        0.00004458        0.00000111        0.00000026
     260         -1.038970        1.000000        0.00001786        0.00000061        0.00000050
     261         -1.038561        1.000000        0.00004326        0.00000193        0.00000034
     262         -1.038022        1.000000        0.00008273        0.00000126        0.00000050
     263         -1.037841        1.000000        0.00000645        0.00000223        0.00000221
     264         -1.036991        1.000000        0.00023497        0.00000718        0.00000385
     265         -1.036854        1.000000        0.00037883        0.00003692        0.00001213
     266         -1.035910        1.000000        0.00052501        0.00001393        0.00000712
     267         -1.035115        1.000000        0.00006920        0.00000385        0.00000217
     268         -1.034275        1.000000        0.00003258        0.00000324        0.00000083
     269         -1.033697        1.000000        0.00009578        0.00000175        0.00000128
     270         -1.033444        1.000000        0.00000156        0.00000493        0.00000060
     271         -1.033385        1.000000        0.00006060        0.00000083        0.00000133
     272         -1.033262        1.000000        0.00000579        0.00000180        0.00000144
     273         -1.032346        1.000000        0.00000526        0.00000035        0.00000010
     274         -1.031626        1.000000        0.00000060        0.00000003        0.00000002
     275         -1.030746        1.000000        0.00000039        0.00000011        0.00000020
     276         -1.029780        1.000000        0.00000037        0.00000063        0.00000018
     277         -1.028980        1.000000        0.00000114        0.00000047        0.00000012
     278         -1.027492        1.000000        0.00010443        0.00000752        0.00000389
     279         -1.025795        1.000000        0.00172029        0.00011794        0.00005480
     280         -1.023990        1.000000        0.00001918        0.00000058        0.00000039
     281         -1.022755        1.000000        0.00017014        0.00000942        0.00000127
     282         -1.019871        1.000000        0.00000002        0.00000001        0.00000000
     283         -1.017737        1.000000        0.00000270        0.00000040        0.00000023
     284         -1.012409        1.000000        0.00000020        0.00000002        0.00000000
     285         -1.010522        1.000000        0.00005114        0.00001115        0.00000342
     286         -0.880961        1.000000        0.00000000        0.00000000        0.00000000
     287         -0.861761        1.000000        0.00000000        0.00000000        0.00000000
     288         -0.860652        1.000000        0.00000000        0.00000000        0.00000000
     289         -0.854811        1.000000        0.00000000        0.00000000        0.00000000
     290         -0.853189        1.000000        0.00000000        0.00000000        0.00000000
     291         -0.838407        1.000000        0.00000000        0.00000000        0.00000000
     292         -0.837131        1.000000        0.00000000        0.00000000        0.00000000
     293         -0.835422        1.000000        0.00000000        0.00000000        0.00000000
     294         -0.832873        1.000000        0.00000000        0.00000000        0.00000000
     295         -0.813092        1.000000        0.00000000        0.00000000        0.00000000
     296         -0.811309        1.000000        0.00000000        0.00000000        0.00000000
     297         -0.805633        1.000000        0.00000000        0.00000000        0.00000000
     298         -0.800994        1.000000        0.00000000        0.00000000        0.00000000
     299         -0.798544        1.000000        0.00000000        0.00000000        0.00000000
     300         -0.797176        1.000000        0.00000000        0.00000000        0.00000000
     301         -0.796065        1.000000        0.00000000        0.00000000        0.00000000
     302         -0.795247        1.000000        0.00000000        0.00000000        0.00000000
     303         -0.794465        1.000000        0.00000000        0.00000000        0.00000000
     304         -0.792558        1.000000        0.00000000        0.00000000        0.00000000
     305         -0.791532        1.000000        0.00000000        0.00000000        0.00000000
     306         -0.790931        1.000000        0.00000000        0.00000000        0.00000000
     307         -0.790366        1.000000        0.00000000        0.00000000        0.00000000