# Projected DOS for list 54 of 1 atoms, at iteration step i = 0, E(Fermi) =    -0.237583 a.u.
#     MO Eigenvalue [a.u.]      Occupation                 s                 p                 d
       1         -3.115895        1.000000        0.00000000        0.00000000        0.00000000
       2         -3.112717        1.000000        0.00000000        0.00000000        0.00000000
       3         -3.112103        1.000000        0.00000000        0.00000000        0.00000000
       4         -3.111180        1.000000        0.00000000        0.00000000        0.00000000
       5         -3.110810        1.000000        0.00000000        0.00000000        0.00000000
       6         -3.110575        1.000000        0.00000000        0.00000000        0.00000000
       7         -3.110067        1.000000        0.00000000        0.00000000        0.00000000
       8         -3.109817        1.000000        0.00000000        0.00000000        0.00000000
       9         -3.109660        1.000000        0.00000000        0.00000000        0.00000000
      10         -3.108831        1.000000        0.00000000        0.00000000        0.00000000
      11         -3.108678        1.000000        0.00000000        0.00000000        0.00000000
      12         -3.108578        1.000000        0.00000000        0.00000000        0.00000000
      13         -3.108350        1.000000        0.00000000        0.00000000        0.00000000
      14         -3.108163        1.000000        0.00000000        0.00000000        0.00000000
      15         -3.107948        1.000000        0.00000000        0.00000000        0.00000000
      16         -3.107865        1.000000        0.00000000        0.00000000        0.00000000
      17         -3.107703        1.000000        0.00000000        0.00000000        0.00000000
      18         -3.107683        1.000000        0.00000000        0.00000000        0.00000000
      19         -3.107641        1.000000        0.00000000        0.00000000        0.00000000
      20         -3.107604        1.000000        0.00000000        0.00000000        0.00000000
      21         -3.107402        1.000000        0.00000000        0.00000000        0.00000000
      22         -3.107115        1.000000        0.00000000        0.00000000        0.00000000
      23         -3.107013        1.000000        0.00000000        0.00000000        0.00000000
      24         -3.106750        1.000000        0.00000000        0.00000000        0.00000000
      25         -3.106619        1.000000        0.00000000        0.00000000        0.00000000
      26         -3.106567        1.000000        0.00000000        0.00000000        0.00000000
      27         -3.106546        1.000000        0.00000000        0.00000000        0.00000000
      28         -3.106258        1.000000        0.00000000        0.00000000        0.00000000
      29         -3.106103        1.000000        0.00000000        0.00000000        0.00000000
      30         -3.104674        1.000000        0.00000000        0.00000000        0.00000000
      31         -1.775522        1.000000        0.00000000        0.00000000        0.00000000
      32         -1.773964        1.000000        0.00000000        0.00000000        0.00000000
      33         -1.773454        1.000000        0.00000000        0.00000000        0.00000000
      34         -1.773008        1.000000        0.00000000        0.00000000        0.00000000
      35         -1.772581        1.000000        0.00000000        0.00000000        0.00000000
      36         -1.772213        1.000000        0.00000000        0.00000000        0.00000000
      37         -1.771852        1.000000        0.00000000        0.00000000        0.00000000
      38         -1.771444        1.000000        0.00000000        0.00000000        0.00000000
      39         -1.771233        1.000000        0.00000000        0.00000000        0.00000000
      40         -1.770977        1.000000        0.00000000        0.00000000        0.00000000
      41         -1.770760        1.000000        0.00000000        0.00000000        0.00000000
      42         -1.770111        1.000000        0.00000000        0.00000000        0.00000000
      43         -1.770034        1.000000        0.00000000        0.00000000        0.00000000
      44         -1.769495        1.000000        0.00000000        0.00000000        0.00000000
      45         -1.769421        1.000000        0.00000000        0.00000000        0.00000000
      46         -1.769063        1.000000        0.00000000        0.00000000        0.00000000
      47         -1.768532        1.000000        0.00000000        0.00000000        0.00000000
      48         -1.768412        1.000000        0.00000000        0.00000000        0.00000000
      49         -1.767811        1.000000        0.00000000        0.00000000        0.00000000
      50         -1.767614        1.000000        0.00000000        0.00000000        0.00000000
      51         -1.767477        1.000000        0.00000000        0.00000000        0.00000000
      52         -1.765531        1.000000        0.00000000        0.00000000        0.00000000
      53         -1.765088        1.000000        0.00000000        0.00000000        0.00000000
      54         -1.764557        1.000000        0.00000000        0.00000000        0.00000000
      55         -1.763772        1.000000        0.00000000        0.00000000        0.00000000
      56         -1.763328        1.000000        0.00000000        0.00000000        0.00000000
      57         -1.762925        1.000000        0.00000000        0.00000000        0.00000000
      58         -1.762506        1.000000        0.00000000        0.00000000        0.00000000
      59         -1.762119        1.000000        0.00000000        0.00000000        0.00000000
      60         -1.762053        1.000000        0.00000000        0.00000000        0.00000000
      61         -1.761895        1.000000        0.00000000        0.00000000        0.00000000
      62         -1.761602        1.000000        0.00000000        0.00000000        0.00000000
      63         -1.761509        1.000000        0.00000000        0.00000000        0.00000000
      64         -1.761377        1.000000        0.00000000        0.00000000        0.00000000
      65         -1.761171        1.000000        0.00000000        0.00000000        0.00000000
      66         -1.760998        1.000000        0.00000000        0.00000000        0.00000000
      67         -1.760877        1.000000        0.00000000        0.00000000        0.00000000
      68         -1.760806        1.000000        0.00000000        0.00000000        0.00000000
      69         -1.760684        1.000000        0.00000000        0.00000000        0.00000000
      70         -1.760645        1.000000        0.00000000        0.00000000        0.00000000
      71         -1.760442        1.000000        0.00000000        0.00000000        0.00000000
      72         -1.760098        1.000000        0.00000000        0.00000000        0.00000000
      73         -1.759962        1.000000        0.00000000        0.00000000        0.00000000
      74         -1.759824        1.000000        0.00000000        0.00000000        0.00000000
      75         -1.759787        1.000000        0.00000000        0.00000000        0.00000000
      76         -1.759638        1.000000        0.00000000        0.00000000        0.00000000
      77         -1.759601        1.000000        0.00000000        0.00000000        0.00000000
      78         -1.759512        1.000000        0.00000000        0.00000000        0.00000000
      79         -1.759406        1.000000        0.00000000        0.00000000        0.00000000
      80         -1.759287        1.000000        0.00000000        0.00000000        0.00000000
      81         -1.759176        1.000000        0.00000000        0.00000000        0.00000000
      82         -1.758872        1.000000        0.00000000        0.00000000        0.00000000
      83         -1.758781        1.000000        0.00000000        0.00000000        0.00000000
      84         -1.758726        1.000000        0.00000000        0.00000000        0.00000000
      85         -1.758559        1.000000        0.00000000        0.00000000        0.00000000
      86         -1.758378        1.000000        0.00000000        0.00000000        0.00000000
      87         -1.758294        1.000000        0.00000000        0.00000000        0.00000000
      88         -1.758087        1.000000        0.00000000        0.00000000        0.00000000
      89         -1.757987        1.000000        0.00000000        0.00000000        0.00000000
      90         -1.757734        1.000000        0.00000000        0.00000000        0.00000000
      91         -1.757649        1.000000        0.00000000        0.00000000        0.00000000
      92         -1.757529        1.000000        0.00000000        0.00000000        0.00000000
      93         -1.757404        1.000000        0.00000000        0.00000000        0.00000000
      94         -1.757324        1.000000        0.00000000        0.00000000        0.00000000
      95         -1.757187        1.000000        0.00000000        0.00000000        0.00000000
      96         -1.757137        1.000000        0.00000000        0.00000000        0.00000000
      97         -1.756770        1.000000        0.00000000        0.00000000        0.00000000
      98         -1.756598        1.000000        0.00000000        0.00000000        0.00000000
      99         -1.756513        1.000000        0.00000000        0.00000000        0.00000000
     100         -1.756186        1.000000        0.00000000        0.00000000        0.00000000
     101         -1.755847        1.000000        0.00000000        0.00000000        0.00000000
     102         -1.755716        1.000000        0.00000000        0.00000000        0.00000000
     103         -1.755306        1.000000        0.00000000        0.00000000        0.00000000
     104         -1.755052        1.000000        0.00000000        0.00000000        0.00000000
     105         -1.754765        1.000000        0.00000000        0.00000000        0.00000000
     106         -1.754094        1.000000        0.00000000        0.00000000        0.00000000
     107         -1.753681        1.000000        0.00000000        0.00000000        0.00000000
     108         -1.753548        1.000000        0.00000000        0.00000000        0.00000000
     109         -1.753256        1.000000        0.00000000        0.00000000        0.00000000
     110         -1.752675        1.000000        0.00000000        0.00000000        0.00000000
     111         -1.752502        1.000000        0.00000000        0.00000000        0.00000000
     112         -1.752253        1.000000        0.00000000        0.00000000        0.00000000
     113         -1.751643        1.000000        0.00000000        0.00000000        0.00000000
     114         -1.751317        1.000000        0.00000000        0.00000000        0.00000000
     115         -1.749193        1.000000        0.00000000        0.00000000        0.00000000
     116         -1.748137        1.000000        0.00000000        0.00000000        0.00000000
     117         -1.747283        1.000000        0.00000000        0.00000000        0.00000000
     118         -1.745962        1.000000        0.00000000        0.00000000        0.00000000
     119         -1.745880        1.000000        0.00000000        0.00000000        0.00000000
     120         -1.744143        1.000000        0.00000000        0.00000000        0.00000000
     121         -1.145318        1.000000        0.00332215        0.00049225        0.00011504
     122         -1.141162        1.000000        0.01893729        0.00225830        0.00062273
     123         -1.135518        1.000000        0.00113556        0.00031787        0.00003283
     124         -1.134356        1.000000        0.00319975        0.00032215        0.00012313
     125         -1.132797        1.000000        0.00642963        0.00025294        0.00026133
     126         -1.131675        1.000000        0.00006265        0.00213021        0.00006648
     127         -1.130657        1.000000        0.00180731        0.00011907        0.00006512
     128         -1.129329        1.000000        0.00316004        0.00032083        0.00008919
     129         -1.127805        1.000000        0.00067940        0.00004340        0.00002109
     130         -1.126970        1.000000        0.00958714        0.00067453        0.00021769
     131         -1.125100        1.000000        0.00080792        0.00100720        0.00002895
     132         -1.124640        1.000000        0.00037999        0.00017504        0.00001461
     133         -1.122028        1.000000        0.00155654        0.00027336        0.00011233
     134         -1.120887        1.000000        0.00466772        0.00009937        0.00011213
     135         -1.119308        1.000000        0.00372086        0.00014959        0.00010687
     136         -1.118408        1.000000        0.00636999        0.00036093        0.00016985
     137         -1.117769        1.000000        0.00210940        0.00160186        0.00006680
     138         -1.116570        1.000000        0.00051893        0.00009444        0.00001012
     139         -1.115096        1.000000        0.00360875        0.00047865        0.00006011
     140         -1.114402        1.000000        0.00159092        0.00016404        0.00004718
     141         -1.114039        1.000000        0.00089992        0.00016929        0.00002293
     142         -1.112381        1.000000        0.00096375        0.00004664        0.00001576
     143         -1.111588        1.000000        0.00477203        0.00063610        0.00008595
     144         -1.111356        1.000000        0.00004263        0.00034264        0.00001837
     145         -1.110913        1.000000        0.00151351        0.00004187        0.00007179
     146         -1.109631        1.000000        0.00234364        0.00073660        0.00002205
     147         -1.107338        1.000000        0.00013039        0.00005296        0.00007213
     148         -1.107163        1.000000        0.00837248        0.00010658        0.00012434
     149         -1.106911        1.000000        0.00001659        0.00005312        0.00001279
     150         -1.105904        1.000000        0.00000205        0.00000487        0.00000847
     151         -1.104513        1.000000        0.00098296        0.00002664        0.00001469
     152         -1.103753        1.000000        0.00058975        0.00005138        0.00002757
     153         -1.103233        1.000000        0.00353554        0.00008388        0.00007293
     154         -1.101116        1.000000        0.00344529        0.00010151        0.00005050
     155         -1.099878        1.000000        0.00509080        0.00105114        0.00007152
     156         -1.099527        1.000000        0.00139146        0.00086715        0.00002066
     157         -1.099360        1.000000        0.00259114        0.00003473        0.00004906
     158         -1.097449        1.000000        0.00222099        0.00010094        0.00007091
     159         -1.097246        1.000000        0.00047276        0.00001509        0.00002705
     160         -1.096336        1.000000        0.00035325        0.00005258        0.00007909
     161         -1.095776        1.000000        0.00008880        0.00001222        0.00002415
     162         -1.094258        1.000000        0.00811306        0.00035217        0.00009280
     163         -1.093701        1.000000        0.01419854        0.00049809        0.00009621
     164         -1.093107        1.000000        0.00000044        0.00008577        0.00000626
     165         -1.091600        1.000000        0.01263454        0.00178317        0.00019226
     166         -1.090890        1.000000        0.00004014        0.00003535        0.00000550
     167         -1.090283        1.000000        0.00044507        0.00002577        0.00000684
     168         -1.089378        1.000000        0.00034723        0.00024366        0.00001084
     169         -1.088506        1.000000        0.00323684        0.00019472        0.00010157
     170         -1.086931        1.000000        0.00017397        0.00005906        0.00001980
     171         -1.086367        1.000000        0.00005361        0.00015429        0.00002099
     172         -1.085327        1.000000        0.00040453        0.00008493        0.00001051
     173         -1.084766        1.000000        0.00711749        0.00029927        0.00015362
     174         -1.083961        1.000000        0.00010678        0.00001778        0.00000503
     175         -1.082920        1.000000        0.00521384        0.00003976        0.00006138
     176         -1.081700        1.000000        0.00058852        0.00000410        0.00002474
     177         -1.081031        1.000000        0.00417077        0.00020775        0.00005686
     178         -1.080558        1.000000        0.00000864        0.00027016        0.00000530
     179         -1.080415        1.000000        0.00000607        0.00007295        0.00000681
     180         -1.080047        1.000000        0.00253793        0.00009009        0.00001865
     181         -1.077309        1.000000        0.00006259        0.00002714        0.00001082
     182         -1.076601        1.000000        0.00251719        0.00001945        0.00003181
     183         -1.076342        1.000000        0.00072201        0.00008746        0.00001077
     184         -1.076154        1.000000        0.00029500        0.00006444        0.00004443
     185         -1.075469        1.000000        0.00000967        0.00005017        0.00000067
     186         -1.074904        1.000000        0.00093166        0.00000820        0.00000892
     187         -1.074160        1.000000        0.00615575        0.00006531        0.00007413
     188         -1.073364        1.000000        0.00115819        0.00007989        0.00002381
     189         -1.071841        1.000000        0.00689693        0.00020107        0.00003951
     190         -1.071436        1.000000        0.00108732        0.00003714        0.00003774
     191         -1.070358        1.000000        0.00597464        0.00012376        0.00003670
     192         -1.070160        1.000000        0.00048194        0.00022701        0.00002952
     193         -1.069551        1.000000        0.00345528        0.00005041        0.00002711
     194         -1.069042        1.000000        0.03923388        0.00030666        0.00014134
     195         -1.068018        1.000000        0.01506510        0.00019344        0.00005067
     196         -1.067683        1.000000        0.00772099        0.00008496        0.00002906
     197         -1.067094        1.000000        0.00007196        0.00004755        0.00003080
     198         -1.066200        1.000000        0.00019647        0.00002817        0.00003654
     199         -1.065105        1.000000        0.05015318        0.00052168        0.00009822
     200         -1.064600        1.000000        0.01308411        0.00012190        0.00001436
     201         -1.063825        1.000000        0.03738952        0.00034164        0.00004716
     202         -1.063672        1.000000        0.00032113        0.00001844        0.00000063
     203         -1.062915        1.000000        0.00115773        0.00004249        0.00001059
     204         -1.062259        1.000000        0.00866647        0.00018583        0.00002904
     205         -1.061986        1.000000        0.00091786        0.00004069        0.00000619
     206         -1.060822        1.000000        0.02410417        0.00019660        0.00002854
     207         -1.060230        1.000000        0.00025094        0.00001013        0.00000063
     208         -1.059971        1.000000        0.00105707        0.00001472        0.00000517
     209         -1.059399        1.000000        0.03144383        0.00032749        0.00003796
     210         -1.058798        1.000000        0.00042941        0.00001398        0.00000402
     211         -1.058498        1.000000        0.00027608        0.00004092        0.00001656
     212         -1.057049        1.000000        0.00336639        0.00007171        0.00000391
     213         -1.056896        1.000000        0.00001584        0.00001246        0.00000108
     214         -1.056403        1.000000        0.00009837        0.00000635        0.00001012
     215         -1.056079        1.000000        0.00006906        0.00002451        0.00001360
     216         -1.055624        1.000000        0.00000203        0.00000818        0.00000499
     217         -1.055288        1.000000        0.00118841        0.00005642        0.00000559
     218         -1.054828        1.000000        0.00364256        0.00010918        0.00000309
     219         -1.054413        1.000000        0.00050644        0.00007677        0.00001022
     220         -1.053990        1.000000        0.00000005        0.00003788        0.00000509
     221         -1.053598        1.000000        0.00003250        0.00034796        0.00002736
     222         -1.053387        1.000000        0.00400151        0.00002526        0.00000501
     223         -1.052953        1.000000        0.01308296        0.00018729        0.00000961
     224         -1.052779        1.000000        0.00200676        0.00006665        0.00000576
     225         -1.052376        1.000000        0.00038633        0.00003690        0.00001102
     226         -1.052297        1.000000        0.00066335        0.00002002        0.00000375
     227         -1.051819        1.000000        0.00104389        0.00005356        0.00000320
     228         -1.051536        1.000000        0.00240649        0.00001494        0.00000079
     229         -1.051232        1.000000        0.00007459        0.00001170        0.00000644
     230         -1.050581        1.000000        0.00031809        0.00001589        0.00000815
     231         -1.050140        1.000000        0.00045817        0.00001434        0.00000335
     232         -1.049834        1.000000        0.00007711        0.00007059        0.00000372
     233         -1.049588        1.000000        0.00134839        0.00002835        0.00000366
     234         -1.049506        1.000000        0.00241942        0.00013735        0.00000540
     235         -1.048565        1.000000        0.00000092        0.00011028        0.00000591
     236         -1.048103        1.000000        0.00002439        0.00001949        0.00000087
     237         -1.048023        1.000000        0.00009915        0.00000779        0.00000028
     238         -1.047651        1.000000        0.00012577        0.00032270        0.00002630
     239         -1.047305        1.000000        0.00145983        0.00002105        0.00000657
     240         -1.046707        1.000000        0.00114045        0.00002644        0.00000678
     241         -1.046592        1.000000        0.00020133        0.00003308        0.00000529
     242         -1.046281        1.000000        0.00379760        0.00003493        0.00001115
     243         -1.045974        1.000000        0.00015434        0.00002236        0.00000297
     244         -1.045866        1.000000        0.00041440        0.00001383        0.00000398
     245         -1.045771        1.000000        0.00000070        0.00007630        0.00000291
     246         -1.045301        1.000000        0.00008876        0.00002636        0.00000348
     247         -1.045020        1.000000        0.00000329        0.00007408        0.00001091
     248         -1.043956        1.000000        0.00275107        0.00024870        0.00003246
     249         -1.043818        1.000000        0.00378777        0.00010677        0.00002676
     250         -1.043244        1.000000        0.00611017        0.00008244        0.00002337
     251         -1.043119        1.000000        0.00310844        0.00017178        0.00002881
     252         -1.042993        1.000000        0.00008389        0.00003421        0.00000446
     253         -1.042515        1.000000        0.00025165        0.00000621        0.00000100
     254         -1.041302        1.000000        0.00194195        0.00027975        0.00003730
     255         -1.041116        1.000000        0.00719587        0.00042989        0.00004879
     256         -1.040594        1.000000        0.00038421        0.00000893        0.00000156
     257         -1.040094        1.000000        0.00032930        0.00040782        0.00004246
     258         -1.039599        1.000000        0.00297505        0.00005400        0.00001322
     259         -1.039408        1.000000        0.00036821        0.00002040        0.00001670
     260         -1.038970        1.000000        0.00107861        0.00001121        0.00000802
     261         -1.038561        1.000000        0.04282343        0.00029328        0.00029083
     262         -1.038022        1.000000        0.00066862        0.00000660        0.00000410
     263         -1.037841        1.000000        0.00024090        0.00000239        0.00000173
     264         -1.036991        1.000000        0.00003583        0.00000190        0.00000114
     265         -1.036854        1.000000        0.00009240        0.00000163        0.00000282
     266         -1.035910        1.000000        0.00004770        0.00002854        0.00001094
     267         -1.035115        1.000000        0.00057696        0.00000983        0.00000328
     268         -1.034275        1.000000        0.00302345        0.00006915        0.00002527
     269         -1.033697        1.000000        0.00001070        0.00002933        0.00002156
     270         -1.033444        1.000000        0.00003731        0.00001847        0.00002289
     271         -1.033385        1.000000        0.00000534        0.00002141        0.00001877
     272         -1.033262        1.000000        0.00039371        0.00003516        0.00004642
     273         -1.032346        1.000000        0.00012905        0.00000338        0.00000145
     274         -1.031626        1.000000        0.00000036        0.00000097        0.00000039
     275         -1.030746        1.000000        0.00386358        0.00041571        0.00047768
     276         -1.029780        1.000000        0.00031799        0.00000777        0.00001957
     277         -1.028980        1.000000        0.00023170        0.00001996        0.00000708
     278         -1.027492        1.000000        0.00000167        0.00000077        0.00000043
     279         -1.025795        1.000000        0.00000528        0.00000024        0.00000002
     280         -1.023990        1.000000        0.00000752        0.00000045        0.00000010
     281         -1.022755        1.000000        0.00001573        0.00000017        0.00000037
     282         -1.019871        1.000000        0.00000003        0.00000005        0.00000003
     283         -1.017737        1.000000        0.00000016        0.00000004        0.00000000
     284         -1.012409        1.000000        0.00000373        0.00000073        0.00000012
     285         -1.010522        1.000000        0.00000025        0.00000023        0.00000011
     286         -0.880961        1.000000        0.00000000        0.00000000        0.00000000
     287         -0.861761        1.000000        0.00000000        0.00000000        0.00000000
     288         -0.860652        1.000000        0.00000000        0.00000000        0.00000000
     289         -0.854811        1.000000        0.00000000        0.00000000        0.00000000
     290         -0.853189        1.000000        0.00000000        0.00000000        0.00000000
     291         -0.838407        1.000000        0.00000000        0.00000000        0.00000000
     292         -0.837131        1.000000        0.00000000        0.00000000        0.00000000
     293         -0.835422        1.000000        0.00000000        0.00000000        0.00000000
     294         -0.832873        1.000000        0.00000000        0.00000000        0.00000000
     295         -0.813092        1.000000        0.00000000        0.00000000        0.00000000
     296         -0.811309        1.000000        0.00000000        0.00000000        0.00000000
     297         -0.805633        1.000000        0.00000000        0.00000000        0.00000000
     298         -0.800994        1.000000        0.00000000        0.00000000        0.00000000
     299         -0.798544        1.000000        0.00000000        0.00000000        0.00000000
     300         -0.797176        1.000000        0.00000000        0.00000000        0.00000000
     301         -0.796065        1.000000        0.00000000        0.00000000        0.00000000
     302         -0.795247        1.000000        0.00000000        0.00000000        0.00000000
     303         -0.794465        1.000000        0.00000000        0.00000000        0.00000000
     304         -0.792558        1.000000        0.00000000        0.00000000        0.00000000
     305         -0.791532        1.000000        0.00000000        0.00000000        0.00000000
     306         -0.790931        1.000000        0.00000000        0.00000000        0.00000000
     307         -0.790366        1.000000        0.00000000        0.00000000        0.00000000