# Projected DOS for list 282 of 1 atoms, at iteration step i = 0, E(Fermi) =    -0.237583 a.u.
#     MO Eigenvalue [a.u.]      Occupation                 s                 p                 d
       1         -3.115895        1.000000        0.00204014        0.00453076        0.00034837
       2         -3.112717        1.000000        0.00001939        0.00010138        0.00001077
       3         -3.112103        1.000000        0.00000988        0.00002089        0.00000413
       4         -3.111180        1.000000        0.00010372        0.00006918        0.00001818
       5         -3.110810        1.000000        0.00001432        0.00009794        0.00001031
       6         -3.110575        1.000000        0.00000015        0.00001292        0.00000057
       7         -3.110067        1.000000        0.00000118        0.00003973        0.00000560
       8         -3.109817        1.000000        0.00000249        0.00001251        0.00000099
       9         -3.109660        1.000000        0.00244919        0.00442062        0.00035409
      10         -3.108831        1.000000        0.00000607        0.00045690        0.00007214
      11         -3.108678        1.000000        0.00000441        0.00036841        0.00006480
      12         -3.108578        1.000000        0.00000597        0.00022659        0.00004083
      13         -3.108350        1.000000        0.00056537        0.00160703        0.00021548
      14         -3.108163        1.000000        0.00010843        0.00046968        0.00007132
      15         -3.107948        1.000000        0.00004523        0.00009343        0.00001198
      16         -3.107865        1.000000        0.00000726        0.00009168        0.00001329
      17         -3.107703        1.000000        0.00003772        0.00020201        0.00001979
      18         -3.107683        1.000000        0.00010280        0.00028591        0.00001670
      19         -3.107641        1.000000        0.00057628        0.00210734        0.00028846
      20         -3.107604        1.000000        0.00031381        0.00104722        0.00010843
      21         -3.107402        1.000000        0.00044532        0.00143844        0.00018890
      22         -3.107115        1.000000        0.00001353        0.00004011        0.00000581
      23         -3.107013        1.000000        0.00000033        0.00001558        0.00000199
      24         -3.106750        1.000000        0.00000783        0.00004073        0.00000519
      25         -3.106619        1.000000        0.00001793        0.00010339        0.00001279
      26         -3.106567        1.000000        0.00000374        0.00004137        0.00000433
      27         -3.106546        1.000000        0.00000167        0.00001427        0.00000202
      28         -3.106258        1.000000        0.00000297        0.00000293        0.00000037
      29         -3.106103        1.000000        0.00000068        0.00000119        0.00000013
      30         -3.104674        1.000000        0.00000001        0.00000001        0.00000001
      31         -1.775522        1.000000        0.00034836        0.00091465        0.00005942
      32         -1.773964        1.000000        0.00005229        0.00023390        0.00005145
      33         -1.773454        1.000000        0.00033347        0.00107465        0.00011640
      34         -1.773008        1.000000        0.00035520        0.00092437        0.00005091
      35         -1.772581        1.000000        0.00030885        0.00090175        0.00008300
      36         -1.772213        1.000000        0.00001421        0.00016633        0.00005830
      37         -1.771852        1.000000        0.00000017        0.00004719        0.00002818
      38         -1.771444        1.000000        0.00015797        0.00040606        0.00002468
      39         -1.771233        1.000000        0.00000000        0.00003718        0.00001290
      40         -1.770977        1.000000        0.00012028        0.00034300        0.00004038
      41         -1.770760        1.000000        0.00002326        0.00008569        0.00001810
      42         -1.770111        1.000000        0.00001010        0.00005780        0.00001087
      43         -1.770034        1.000000        0.00003503        0.00010383        0.00001665
      44         -1.769495        1.000000        0.00000095        0.00001989        0.00000683
      45         -1.769421        1.000000        0.00000529        0.00011313        0.00008396
      46         -1.769063        1.000000        0.00017752        0.00046195        0.00005831
      47         -1.768532        1.000000        0.00000786        0.00002771        0.00000411
      48         -1.768412        1.000000        0.00008751        0.00021724        0.00002152
      49         -1.767811        1.000000        0.00000240        0.00016979        0.00007041
      50         -1.767614        1.000000        0.00000099        0.00003234        0.00001326
      51         -1.767477        1.000000        0.00000206        0.00012593        0.00006947
      52         -1.765531        1.000000        0.00000176        0.00020347        0.00011129
      53         -1.765088        1.000000        0.00009374        0.00020100        0.00002129
      54         -1.764557        1.000000        0.00037586        0.00079887        0.00003846
      55         -1.763772        1.000000        0.00032939        0.00093760        0.00011144
      56         -1.763328        1.000000        0.00018627        0.00044840        0.00004136
      57         -1.762925        1.000000        0.00000686        0.00025424        0.00008619
      58         -1.762506        1.000000        0.00019506        0.00048832        0.00004150
      59         -1.762119        1.000000        0.00000353        0.00005605        0.00001679
      60         -1.762053        1.000000        0.00009523        0.00020847        0.00001601
      61         -1.761895        1.000000        0.00008458        0.00015119        0.00000508
      62         -1.761602        1.000000        0.00009095        0.00112294        0.00045780
      63         -1.761509        1.000000        0.00000979        0.00001779        0.00000595
      64         -1.761377        1.000000        0.00000012        0.00000460        0.00000983
      65         -1.761171        1.000000        0.00003384        0.00018477        0.00006345
      66         -1.760998        1.000000        0.00009796        0.00029708        0.00008050
      67         -1.760877        1.000000        0.00002790        0.00005655        0.00000490
      68         -1.760806        1.000000        0.00003819        0.00026086        0.00012033
      69         -1.760684        1.000000        0.00002528        0.00009000        0.00002654
      70         -1.760645        1.000000        0.00007933        0.00038209        0.00009316
      71         -1.760442        1.000000        0.00013496        0.00043025        0.00014106
      72         -1.760098        1.000000        0.00011936        0.00071539        0.00020774
      73         -1.759962        1.000000        0.00000061        0.00005222        0.00002466
      74         -1.759824        1.000000        0.00002118        0.00031408        0.00012377
      75         -1.759787        1.000000        0.00000193        0.00017306        0.00006966
      76         -1.759638        1.000000        0.00000120        0.00000538        0.00000153
      77         -1.759601        1.000000        0.00000099        0.00007120        0.00003488
      78         -1.759512        1.000000        0.00000761        0.00090934        0.00032825
      79         -1.759406        1.000000        0.00000029        0.00014124        0.00005269
      80         -1.759287        1.000000        0.00005162        0.00063576        0.00026434
      81         -1.759176        1.000000        0.00002183        0.00065188        0.00030051
      82         -1.758872        1.000000        0.00013686        0.00035457        0.00005134
      83         -1.758781        1.000000        0.00000365        0.00015627        0.00007175
      84         -1.758726        1.000000        0.00000061        0.00010093        0.00008612
      85         -1.758559        1.000000        0.00000923        0.00006730        0.00003138
      86         -1.758378        1.000000        0.00011770        0.00059637        0.00018342
      87         -1.758294        1.000000        0.00009491        0.00027479        0.00003893
      88         -1.758087        1.000000        0.00000629        0.00014311        0.00006114
      89         -1.757987        1.000000        0.00000314        0.00001796        0.00000174
      90         -1.757734        1.000000        0.00004764        0.00033550        0.00014145
      91         -1.757649        1.000000        0.00011323        0.00027162        0.00003581
      92         -1.757529        1.000000        0.00001900        0.00006625        0.00002042
      93         -1.757404        1.000000        0.00000477        0.00005622        0.00001554
      94         -1.757324        1.000000        0.00001821        0.00015649        0.00010399
      95         -1.757187        1.000000        0.00000189        0.00004697        0.00001658
      96         -1.757137        1.000000        0.00000399        0.00018114        0.00009848
      97         -1.756770        1.000000        0.00000135        0.00022441        0.00009682
      98         -1.756598        1.000000        0.00000153        0.00002105        0.00000809
      99         -1.756513        1.000000        0.00002865        0.00023268        0.00009729
     100         -1.756186        1.000000        0.00001203        0.00003633        0.00000774
     101         -1.755847        1.000000        0.00001742        0.00003908        0.00000436
     102         -1.755716        1.000000        0.00003380        0.00013355        0.00005376
     103         -1.755306        1.000000        0.00001432        0.00018103        0.00006201
     104         -1.755052        1.000000        0.00001240        0.00020301        0.00008880
     105         -1.754765        1.000000        0.00003620        0.00014393        0.00003896
     106         -1.754094        1.000000        0.00000420        0.00002275        0.00001833
     107         -1.753681        1.000000        0.00000072        0.00004107        0.00001866
     108         -1.753548        1.000000        0.00001164        0.00011318        0.00007542
     109         -1.753256        1.000000        0.00000636        0.00022248        0.00015550
     110         -1.752675        1.000000        0.00000536        0.00034254        0.00017802
     111         -1.752502        1.000000        0.00000322        0.00002996        0.00001658
     112         -1.752253        1.000000        0.00000571        0.00012270        0.00007829
     113         -1.751643        1.000000        0.00000075        0.00001633        0.00001430
     114         -1.751317        1.000000        0.00000312        0.00002281        0.00001386
     115         -1.749193        1.000000        0.00000513        0.00021390        0.00005831
     116         -1.748137        1.000000        0.00000019        0.00003355        0.00001029
     117         -1.747283        1.000000        0.00000115        0.00004531        0.00002760
     118         -1.745962        1.000000        0.00000067        0.00003100        0.00001116
     119         -1.745880        1.000000        0.00000037        0.00002350        0.00004126
     120         -1.744143        1.000000        0.00000000        0.00000109        0.00000177
     121         -1.145318        1.000000        0.00000000        0.00000000        0.00000000
     122         -1.141162        1.000000        0.00000000        0.00000000        0.00000000
     123         -1.135518        1.000000        0.00000000        0.00000000        0.00000000
     124         -1.134356        1.000000        0.00000000        0.00000000        0.00000000
     125         -1.132797        1.000000        0.00000000        0.00000000        0.00000000
     126         -1.131675        1.000000        0.00000000        0.00000000        0.00000000
     127         -1.130657        1.000000        0.00000000        0.00000000        0.00000000
     128         -1.129329        1.000000        0.00000000        0.00000000        0.00000000
     129         -1.127805        1.000000        0.00000000        0.00000000        0.00000000
     130         -1.126970        1.000000        0.00000000        0.00000000        0.00000000
     131         -1.125100        1.000000        0.00000000        0.00000000        0.00000000
     132         -1.124640        1.000000        0.00000000        0.00000000        0.00000000
     133         -1.122028        1.000000        0.00000000        0.00000000        0.00000000
     134         -1.120887        1.000000        0.00000000        0.00000000        0.00000000
     135         -1.119308        1.000000        0.00000000        0.00000000        0.00000000
     136         -1.118408        1.000000        0.00000000        0.00000000        0.00000000
     137         -1.117769        1.000000        0.00000000        0.00000000        0.00000000
     138         -1.116570        1.000000        0.00000000        0.00000001        0.00000000
     139         -1.115096        1.000000        0.00000000        0.00000000        0.00000000
     140         -1.114402        1.000000        0.00000000        0.00000000        0.00000000
     141         -1.114039        1.000000        0.00000000        0.00000000        0.00000000
     142         -1.112381        1.000000        0.00000000        0.00000001        0.00000000
     143         -1.111588        1.000000        0.00000000        0.00000000        0.00000000
     144         -1.111356        1.000000        0.00000000        0.00000001        0.00000000
     145         -1.110913        1.000000        0.00000000        0.00000000        0.00000000
     146         -1.109631        1.000000        0.00000000        0.00000000        0.00000000
     147         -1.107338        1.000000        0.00000000        0.00000000        0.00000000
     148         -1.107163        1.000000        0.00000000        0.00000000        0.00000000
     149         -1.106911        1.000000        0.00000000        0.00000000        0.00000000
     150         -1.105904        1.000000        0.00000000        0.00000000        0.00000000
     151         -1.104513        1.000000        0.00000000        0.00000001        0.00000000
     152         -1.103753        1.000000        0.00000000        0.00000000        0.00000000
     153         -1.103233        1.000000        0.00000000        0.00000000        0.00000000
     154         -1.101116        1.000000        0.00000000        0.00000001        0.00000000
     155         -1.099878        1.000000        0.00000000        0.00000003        0.00000000
     156         -1.099527        1.000000        0.00000000        0.00000002        0.00000000
     157         -1.099360        1.000000        0.00000000        0.00000011        0.00000001
     158         -1.097449        1.000000        0.00000000        0.00000001        0.00000000
     159         -1.097246        1.000000        0.00000000        0.00000004        0.00000000
     160         -1.096336        1.000000        0.00000000        0.00000000        0.00000000
     161         -1.095776        1.000000        0.00000000        0.00000000        0.00000000
     162         -1.094258        1.000000        0.00000000        0.00000001        0.00000000
     163         -1.093701        1.000000        0.00000000        0.00000000        0.00000000
     164         -1.093107        1.000000        0.00000000        0.00000002        0.00000000
     165         -1.091600        1.000000        0.00000000        0.00000000        0.00000000
     166         -1.090890        1.000000        0.00000000        0.00000000        0.00000000
     167         -1.090283        1.000000        0.00000000        0.00000000        0.00000000
     168         -1.089378        1.000000        0.00000000        0.00000001        0.00000000
     169         -1.088506        1.000000        0.00000000        0.00000001        0.00000000
     170         -1.086931        1.000000        0.00000000        0.00000000        0.00000000
     171         -1.086367        1.000000        0.00000000        0.00000001        0.00000000
     172         -1.085327        1.000000        0.00000000        0.00000003        0.00000000
     173         -1.084766        1.000000        0.00000000        0.00000000        0.00000000
     174         -1.083961        1.000000        0.00000000        0.00000000        0.00000000
     175         -1.082920        1.000000        0.00000000        0.00000001        0.00000000
     176         -1.081700        1.000000        0.00000000        0.00000001        0.00000000
     177         -1.081031        1.000000        0.00000000        0.00000001        0.00000000
     178         -1.080558        1.000000        0.00000000        0.00000000        0.00000000
     179         -1.080415        1.000000        0.00000000        0.00000000        0.00000000
     180         -1.080047        1.000000        0.00000000        0.00000003        0.00000000
     181         -1.077309        1.000000        0.00000000        0.00000004        0.00000000
     182         -1.076601        1.000000        0.00000000        0.00000002        0.00000000
     183         -1.076342        1.000000        0.00000000        0.00000000        0.00000000
     184         -1.076154        1.000000        0.00000000        0.00000003        0.00000000
     185         -1.075469        1.000000        0.00000000        0.00000001        0.00000000
     186         -1.074904        1.000000        0.00000000        0.00000001        0.00000000
     187         -1.074160        1.000000        0.00000000        0.00000000        0.00000000
     188         -1.073364        1.000000        0.00000000        0.00000000        0.00000000
     189         -1.071841        1.000000        0.00000000        0.00000000        0.00000000
     190         -1.071436        1.000000        0.00000000        0.00000000        0.00000000
     191         -1.070358        1.000000        0.00000000        0.00000001        0.00000000
     192         -1.070160        1.000000        0.00000000        0.00000005        0.00000001
     193         -1.069551        1.000000        0.00000000        0.00000001        0.00000000
     194         -1.069042        1.000000        0.00000000        0.00000000        0.00000000
     195         -1.068018        1.000000        0.00000000        0.00000001        0.00000000
     196         -1.067683        1.000000        0.00000000        0.00000000        0.00000000
     197         -1.067094        1.000000        0.00000000        0.00000002        0.00000000
     198         -1.066200        1.000000        0.00000000        0.00000000        0.00000000
     199         -1.065105        1.000000        0.00000000        0.00000001        0.00000000
     200         -1.064600        1.000000        0.00000001        0.00000003        0.00000000
     201         -1.063825        1.000000        0.00000000        0.00000000        0.00000000
     202         -1.063672        1.000000        0.00000000        0.00000008        0.00000001
     203         -1.062915        1.000000        0.00000001        0.00000006        0.00000001
     204         -1.062259        1.000000        0.00000000        0.00000000        0.00000000
     205         -1.061986        1.000000        0.00000000        0.00000001        0.00000000
     206         -1.060822        1.000000        0.00000000        0.00000001        0.00000000
     207         -1.060230        1.000000        0.00000000        0.00000004        0.00000000
     208         -1.059971        1.000000        0.00000000        0.00000000        0.00000000
     209         -1.059399        1.000000        0.00000000        0.00000004        0.00000000
     210         -1.058798        1.000000        0.00000000        0.00000000        0.00000000
     211         -1.058498        1.000000        0.00000000        0.00000001        0.00000000
     212         -1.057049        1.000000        0.00000000        0.00000000        0.00000000
     213         -1.056896        1.000000        0.00000000        0.00000000        0.00000000
     214         -1.056403        1.000000        0.00000000        0.00000000        0.00000000
     215         -1.056079        1.000000        0.00000000        0.00000000        0.00000000
     216         -1.055624        1.000000        0.00000000        0.00000001        0.00000000
     217         -1.055288        1.000000        0.00000000        0.00000000        0.00000000
     218         -1.054828        1.000000        0.00000000        0.00000000        0.00000000
     219         -1.054413        1.000000        0.00000000        0.00000000        0.00000000
     220         -1.053990        1.000000        0.00000000        0.00000000        0.00000000
     221         -1.053598        1.000000        0.00000000        0.00000000        0.00000000
     222         -1.053387        1.000000        0.00000000        0.00000001        0.00000000
     223         -1.052953        1.000000        0.00000000        0.00000000        0.00000000
     224         -1.052779        1.000000        0.00000000        0.00000000        0.00000000
     225         -1.052376        1.000000        0.00000000        0.00000000        0.00000000
     226         -1.052297        1.000000        0.00000000        0.00000001        0.00000000
     227         -1.051819        1.000000        0.00000000        0.00000000        0.00000000
     228         -1.051536        1.000000        0.00000000        0.00000000        0.00000000
     229         -1.051232        1.000000        0.00000000        0.00000000        0.00000000
     230         -1.050581        1.000000        0.00000000        0.00000000        0.00000000
     231         -1.050140        1.000000        0.00000000        0.00000000        0.00000000
     232         -1.049834        1.000000        0.00000000        0.00000000        0.00000000
     233         -1.049588        1.000000        0.00000000        0.00000000        0.00000000
     234         -1.049506        1.000000        0.00000000        0.00000000        0.00000000
     235         -1.048565        1.000000        0.00000000        0.00000001        0.00000000
     236         -1.048103        1.000000        0.00000000        0.00000000        0.00000000
     237         -1.048023        1.000000        0.00000000        0.00000000        0.00000000
     238         -1.047651        1.000000        0.00000000        0.00000001        0.00000000
     239         -1.047305        1.000000        0.00000000        0.00000000        0.00000000
     240         -1.046707        1.000000        0.00000000        0.00000001        0.00000000
     241         -1.046592        1.000000        0.00000000        0.00000002        0.00000000
     242         -1.046281        1.000000        0.00000000        0.00000001        0.00000000
     243         -1.045974        1.000000        0.00000000        0.00000001        0.00000000
     244         -1.045866        1.000000        0.00000000        0.00000000        0.00000000
     245         -1.045771        1.000000        0.00000000        0.00000000        0.00000000
     246         -1.045301        1.000000        0.00000000        0.00000000        0.00000000
     247         -1.045020        1.000000        0.00000000        0.00000000        0.00000000
     248         -1.043956        1.000000        0.00000000        0.00000000        0.00000000
     249         -1.043818        1.000000        0.00000000        0.00000000        0.00000000
     250         -1.043244        1.000000        0.00000000        0.00000000        0.00000000
     251         -1.043119        1.000000        0.00000000        0.00000000        0.00000000
     252         -1.042993        1.000000        0.00000000        0.00000000        0.00000000
     253         -1.042515        1.000000        0.00000000        0.00000000        0.00000000
     254         -1.041302        1.000000        0.00000000        0.00000000        0.00000000
     255         -1.041116        1.000000        0.00000000        0.00000000        0.00000000
     256         -1.040594        1.000000        0.00000000        0.00000000        0.00000000
     257         -1.040094        1.000000        0.00000000        0.00000000        0.00000000
     258         -1.039599        1.000000        0.00000000        0.00000000        0.00000000
     259         -1.039408        1.000000        0.00000000        0.00000000        0.00000000
     260         -1.038970        1.000000        0.00000000        0.00000000        0.00000000
     261         -1.038561        1.000000        0.00000000        0.00000000        0.00000000
     262         -1.038022        1.000000        0.00000000        0.00000000        0.00000000
     263         -1.037841        1.000000        0.00000000        0.00000000        0.00000000
     264         -1.036991        1.000000        0.00000000        0.00000000        0.00000000
     265         -1.036854        1.000000        0.00000000        0.00000000        0.00000000
     266         -1.035910        1.000000        0.00000000        0.00000000        0.00000000
     267         -1.035115        1.000000        0.00000000        0.00000000        0.00000000
     268         -1.034275        1.000000        0.00000000        0.00000000        0.00000000
     269         -1.033697        1.000000        0.00000000        0.00000000        0.00000000
     270         -1.033444        1.000000        0.00000000        0.00000000        0.00000000
     271         -1.033385        1.000000        0.00000000        0.00000000        0.00000000
     272         -1.033262        1.000000        0.00000000        0.00000000        0.00000000
     273         -1.032346        1.000000        0.00000000        0.00000002        0.00000000
     274         -1.031626        1.000000        0.00000000        0.00000000        0.00000000
     275         -1.030746        1.000000        0.00000000        0.00000000        0.00000000
     276         -1.029780        1.000000        0.00000000        0.00000000        0.00000000
     277         -1.028980        1.000000        0.00000000        0.00000000        0.00000000
     278         -1.027492        1.000000        0.00000000        0.00000000        0.00000000
     279         -1.025795        1.000000        0.00000000        0.00000000        0.00000000
     280         -1.023990        1.000000        0.00000000        0.00000000        0.00000000
     281         -1.022755        1.000000        0.00000000        0.00000000        0.00000000
     282         -1.019871        1.000000        0.00000000        0.00000000        0.00000000
     283         -1.017737        1.000000        0.00000000        0.00000000        0.00000000
     284         -1.012409        1.000000        0.00000000        0.00000000        0.00000000
     285         -1.010522        1.000000        0.00000000        0.00000000        0.00000000
     286         -0.880961        1.000000        0.00411135        0.00025406        0.00000154
     287         -0.861761        1.000000        0.00356983        0.00016071        0.00001674
     288         -0.860652        1.000000        0.00080173        0.00067430        0.00004034
     289         -0.854811        1.000000        0.01699641        0.00087119        0.00000376
     290         -0.853189        1.000000        0.00082947        0.00087268        0.00001164
     291         -0.838407        1.000000        0.00002204        0.00067806        0.00003178
     292         -0.837131        1.000000        0.02818823        0.00109685        0.00001388
     293         -0.835422        1.000000        0.00005731        0.00123364        0.00001720
     294         -0.832873        1.000000        0.00047459        0.00047819        0.00005534
     295         -0.813092        1.000000        0.00512930        0.00066298        0.00002124
     296         -0.811309        1.000000        0.00988443        0.00053701        0.00012109
     297         -0.805633        1.000000        0.00556656        0.00013006        0.00013086
     298         -0.800994        1.000000        0.00072130        0.00003377        0.00003436
     299         -0.798544        1.000000        0.00465691        0.00072516        0.00001820
     300         -0.797176        1.000000        0.00037075        0.00038237        0.00004196
     301         -0.796065        1.000000        0.00328189        0.00065939        0.00005030
     302         -0.795247        1.000000        0.00829386        0.00003362        0.00001447
     303         -0.794465        1.000000        0.00019196        0.00037845        0.00003013
     304         -0.792558        1.000000        0.00015835        0.00057513        0.00021030
     305         -0.791532        1.000000        0.00894416        0.00007404        0.00001656
     306         -0.790931        1.000000        0.00553004        0.00131473        0.00004057
     307         -0.790366        1.000000        0.02029046        0.00162908        0.00002617