# Projected DOS for list 209 of 1 atoms, at iteration step i = 0, E(Fermi) =    -0.237583 a.u.
#     MO Eigenvalue [a.u.]      Occupation                 s                 p                 d
       1         -3.115895        1.000000        0.00003692        0.00019715        0.00001762
       2         -3.112717        1.000000        0.00012240        0.00007480        0.00000653
       3         -3.112103        1.000000        0.00000044        0.00000717        0.00000122
       4         -3.111180        1.000000        0.00000074        0.00000097        0.00000161
       5         -3.110810        1.000000        0.00000072        0.00002148        0.00000266
       6         -3.110575        1.000000        0.00004243        0.00013557        0.00001389
       7         -3.110067        1.000000        0.00000114        0.00000532        0.00000110
       8         -3.109817        1.000000        0.00000700        0.00001085        0.00000066
       9         -3.109660        1.000000        0.00582600        0.00804431        0.00037246
      10         -3.108831        1.000000        0.00013127        0.00122632        0.00021247
      11         -3.108678        1.000000        0.00034599        0.00141365        0.00024508
      12         -3.108578        1.000000        0.00022940        0.00090526        0.00013599
      13         -3.108350        1.000000        0.00010878        0.00216729        0.00031494
      14         -3.108163        1.000000        0.00002708        0.00028046        0.00005635
      15         -3.107948        1.000000        0.00001393        0.00136717        0.00024796
      16         -3.107865        1.000000        0.00011262        0.00065314        0.00009469
      17         -3.107703        1.000000        0.00005024        0.00039754        0.00005964
      18         -3.107683        1.000000        0.00094688        0.00247592        0.00022586
      19         -3.107641        1.000000        0.00001907        0.00162095        0.00024158
      20         -3.107604        1.000000        0.00011424        0.00038425        0.00005160
      21         -3.107402        1.000000        0.00001905        0.00003737        0.00000442
      22         -3.107115        1.000000        0.00000026        0.00000627        0.00000112
      23         -3.107013        1.000000        0.00001392        0.00008196        0.00001317
      24         -3.106750        1.000000        0.00000037        0.00001719        0.00000279
      25         -3.106619        1.000000        0.00000310        0.00005897        0.00000702
      26         -3.106567        1.000000        0.00000585        0.00007453        0.00001104
      27         -3.106546        1.000000        0.00002440        0.00018589        0.00002528
      28         -3.106258        1.000000        0.00000001        0.00000194        0.00000022
      29         -3.106103        1.000000        0.00000012        0.00000134        0.00000011
      30         -3.104674        1.000000        0.00000000        0.00000001        0.00000001
      31         -1.775522        1.000000        0.00003169        0.00010050        0.00001510
      32         -1.773964        1.000000        0.00002486        0.00010714        0.00004188
      33         -1.773454        1.000000        0.00004025        0.00012763        0.00001274
      34         -1.773008        1.000000        0.00002088        0.00008926        0.00002263
      35         -1.772581        1.000000        0.00027280        0.00074190        0.00007160
      36         -1.772213        1.000000        0.00060251        0.00157684        0.00010126
      37         -1.771852        1.000000        0.00000278        0.00007329        0.00003400
      38         -1.771444        1.000000        0.00011923        0.00036341        0.00004683
      39         -1.771233        1.000000        0.00000192        0.00014261        0.00006890
      40         -1.770977        1.000000        0.00011495        0.00032361        0.00004266
      41         -1.770760        1.000000        0.00000694        0.00001863        0.00000487
      42         -1.770111        1.000000        0.00007222        0.00020831        0.00003483
      43         -1.770034        1.000000        0.00009769        0.00027973        0.00004295
      44         -1.769495        1.000000        0.00003587        0.00014100        0.00003961
      45         -1.769421        1.000000        0.00001650        0.00006807        0.00001688
      46         -1.769063        1.000000        0.00046313        0.00119109        0.00008141
      47         -1.768532        1.000000        0.00020365        0.00059036        0.00006518
      48         -1.768412        1.000000        0.00000048        0.00007972        0.00003278
      49         -1.767811        1.000000        0.00012040        0.00034147        0.00004228
      50         -1.767614        1.000000        0.00001334        0.00006355        0.00002166
      51         -1.767477        1.000000        0.00000011        0.00004112        0.00001620
      52         -1.765531        1.000000        0.00011006        0.00036961        0.00010867
      53         -1.765088        1.000000        0.00000849        0.00003471        0.00001840
      54         -1.764557        1.000000        0.00013038        0.00027866        0.00003400
      55         -1.763772        1.000000        0.00005894        0.00016355        0.00004102
      56         -1.763328        1.000000        0.00000275        0.00005517        0.00002414
      57         -1.762925        1.000000        0.00002152        0.00006266        0.00000353
      58         -1.762506        1.000000        0.00023848        0.00042910        0.00002361
      59         -1.762119        1.000000        0.00003064        0.00007747        0.00000907
      60         -1.762053        1.000000        0.00004666        0.00013719        0.00002472
      61         -1.761895        1.000000        0.00033600        0.00060103        0.00000849
      62         -1.761602        1.000000        0.00026239        0.00045533        0.00001246
      63         -1.761509        1.000000        0.00008538        0.00018857        0.00000489
      64         -1.761377        1.000000        0.00000042        0.00001012        0.00000908
      65         -1.761171        1.000000        0.00012792        0.00023128        0.00002256
      66         -1.760998        1.000000        0.00000014        0.00010743        0.00006892
      67         -1.760877        1.000000        0.00000008        0.00020546        0.00010757
      68         -1.760806        1.000000        0.00006454        0.00028733        0.00008555
      69         -1.760684        1.000000        0.00008339        0.00015785        0.00001751
      70         -1.760645        1.000000        0.00013184        0.00031570        0.00004035
      71         -1.760442        1.000000        0.00003028        0.00009101        0.00002713
      72         -1.760098        1.000000        0.00013340        0.00036152        0.00010510
      73         -1.759962        1.000000        0.00000561        0.00002224        0.00001750
      74         -1.759824        1.000000        0.00001909        0.00003593        0.00000605
      75         -1.759787        1.000000        0.00012271        0.00050468        0.00012532
      76         -1.759638        1.000000        0.00000006        0.00014974        0.00005873
      77         -1.759601        1.000000        0.00002864        0.00011368        0.00002159
      78         -1.759512        1.000000        0.00026845        0.00113256        0.00029584
      79         -1.759406        1.000000        0.00011216        0.00052064        0.00014323
      80         -1.759287        1.000000        0.00005646        0.00020210        0.00002300
      81         -1.759176        1.000000        0.00000780        0.00019410        0.00007086
      82         -1.758872        1.000000        0.00005670        0.00011306        0.00001728
      83         -1.758781        1.000000        0.00000829        0.00027011        0.00011180
      84         -1.758726        1.000000        0.00016297        0.00039772        0.00004911
      85         -1.758559        1.000000        0.00000197        0.00009415        0.00003454
      86         -1.758378        1.000000        0.00010725        0.00039163        0.00009858
      87         -1.758294        1.000000        0.00015217        0.00096562        0.00031766
      88         -1.758087        1.000000        0.00009274        0.00128231        0.00046736
      89         -1.757987        1.000000        0.00009706        0.00067676        0.00024329
      90         -1.757734        1.000000        0.00001424        0.00026721        0.00012365
      91         -1.757649        1.000000        0.00001066        0.00025335        0.00015582
      92         -1.757529        1.000000        0.00002965        0.00065309        0.00028584
      93         -1.757404        1.000000        0.00000459        0.00159563        0.00068948
      94         -1.757324        1.000000        0.00000112        0.00014298        0.00008614
      95         -1.757187        1.000000        0.00002646        0.00007374        0.00001782
      96         -1.757137        1.000000        0.00010955        0.00021310        0.00001714
      97         -1.756770        1.000000        0.00000047        0.00013207        0.00005125
      98         -1.756598        1.000000        0.00000061        0.00010189        0.00005511
      99         -1.756513        1.000000        0.00001036        0.00022065        0.00011122
     100         -1.756186        1.000000        0.00000576        0.00024909        0.00012612
     101         -1.755847        1.000000        0.00002468        0.00013064        0.00004799
     102         -1.755716        1.000000        0.00002162        0.00020794        0.00008599
     103         -1.755306        1.000000        0.00002106        0.00029496        0.00014039
     104         -1.755052        1.000000        0.00003162        0.00011877        0.00004960
     105         -1.754765        1.000000        0.00000602        0.00028938        0.00016010
     106         -1.754094        1.000000        0.00001545        0.00024798        0.00010541
     107         -1.753681        1.000000        0.00000900        0.00015556        0.00012844
     108         -1.753548        1.000000        0.00000727        0.00024138        0.00011149
     109         -1.753256        1.000000        0.00001763        0.00020738        0.00009944
     110         -1.752675        1.000000        0.00000087        0.00033503        0.00024612
     111         -1.752502        1.000000        0.00000070        0.00006142        0.00003779
     112         -1.752253        1.000000        0.00000263        0.00012578        0.00012458
     113         -1.751643        1.000000        0.00002060        0.00005254        0.00000934
     114         -1.751317        1.000000        0.00000144        0.00019937        0.00010454
     115         -1.749193        1.000000        0.00000602        0.00048296        0.00018213
     116         -1.748137        1.000000        0.00000078        0.00005665        0.00001514
     117         -1.747283        1.000000        0.00000170        0.00012689        0.00009427
     118         -1.745962        1.000000        0.00000114        0.00008054        0.00004122
     119         -1.745880        1.000000        0.00000258        0.00007699        0.00010825
     120         -1.744143        1.000000        0.00000002        0.00000113        0.00000304
     121         -1.145318        1.000000        0.00000001        0.00000001        0.00000000
     122         -1.141162        1.000000        0.00000000        0.00000000        0.00000000
     123         -1.135518        1.000000        0.00000003        0.00000001        0.00000000
     124         -1.134356        1.000000        0.00000003        0.00000001        0.00000000
     125         -1.132797        1.000000        0.00000000        0.00000000        0.00000000
     126         -1.131675        1.000000        0.00000000        0.00000000        0.00000000
     127         -1.130657        1.000000        0.00000000        0.00000000        0.00000000
     128         -1.129329        1.000000        0.00000000        0.00000000        0.00000000
     129         -1.127805        1.000000        0.00000001        0.00000000        0.00000000
     130         -1.126970        1.000000        0.00000002        0.00000002        0.00000000
     131         -1.125100        1.000000        0.00000000        0.00000000        0.00000000
     132         -1.124640        1.000000        0.00000002        0.00000001        0.00000000
     133         -1.122028        1.000000        0.00000000        0.00000001        0.00000000
     134         -1.120887        1.000000        0.00000000        0.00000000        0.00000000
     135         -1.119308        1.000000        0.00000001        0.00000003        0.00000000
     136         -1.118408        1.000000        0.00000000        0.00000000        0.00000000
     137         -1.117769        1.000000        0.00000001        0.00000000        0.00000000
     138         -1.116570        1.000000        0.00000001        0.00000004        0.00000000
     139         -1.115096        1.000000        0.00000000        0.00000000        0.00000000
     140         -1.114402        1.000000        0.00000001        0.00000005        0.00000000
     141         -1.114039        1.000000        0.00000000        0.00000000        0.00000000
     142         -1.112381        1.000000        0.00000000        0.00000003        0.00000000
     143         -1.111588        1.000000        0.00000001        0.00000014        0.00000001
     144         -1.111356        1.000000        0.00000002        0.00000010        0.00000000
     145         -1.110913        1.000000        0.00000000        0.00000007        0.00000000
     146         -1.109631        1.000000        0.00000000        0.00000002        0.00000000
     147         -1.107338        1.000000        0.00000000        0.00000002        0.00000000
     148         -1.107163        1.000000        0.00000000        0.00000001        0.00000000
     149         -1.106911        1.000000        0.00000000        0.00000002        0.00000000
     150         -1.105904        1.000000        0.00000001        0.00000006        0.00000000
     151         -1.104513        1.000000        0.00000000        0.00000005        0.00000000
     152         -1.103753        1.000000        0.00000000        0.00000003        0.00000000
     153         -1.103233        1.000000        0.00000000        0.00000000        0.00000000
     154         -1.101116        1.000000        0.00000001        0.00000016        0.00000000
     155         -1.099878        1.000000        0.00000001        0.00000001        0.00000000
     156         -1.099527        1.000000        0.00000001        0.00000005        0.00000000
     157         -1.099360        1.000000        0.00000009        0.00000041        0.00000001
     158         -1.097449        1.000000        0.00000001        0.00000003        0.00000000
     159         -1.097246        1.000000        0.00000006        0.00000041        0.00000002
     160         -1.096336        1.000000        0.00000004        0.00000005        0.00000000
     161         -1.095776        1.000000        0.00000003        0.00000011        0.00000000
     162         -1.094258        1.000000        0.00000000        0.00000002        0.00000000
     163         -1.093701        1.000000        0.00000001        0.00000018        0.00000001
     164         -1.093107        1.000000        0.00000001        0.00000020        0.00000001
     165         -1.091600        1.000000        0.00000000        0.00000000        0.00000000
     166         -1.090890        1.000000        0.00000000        0.00000000        0.00000000
     167         -1.090283        1.000000        0.00000000        0.00000001        0.00000000
     168         -1.089378        1.000000        0.00000002        0.00000012        0.00000000
     169         -1.088506        1.000000        0.00000002        0.00000026        0.00000002
     170         -1.086931        1.000000        0.00000001        0.00000004        0.00000000
     171         -1.086367        1.000000        0.00000000        0.00000001        0.00000000
     172         -1.085327        1.000000        0.00000000        0.00000000        0.00000000
     173         -1.084766        1.000000        0.00000002        0.00000020        0.00000001
     174         -1.083961        1.000000        0.00000000        0.00000002        0.00000000
     175         -1.082920        1.000000        0.00000000        0.00000007        0.00000000
     176         -1.081700        1.000000        0.00000006        0.00000060        0.00000003
     177         -1.081031        1.000000        0.00000001        0.00000012        0.00000001
     178         -1.080558        1.000000        0.00000000        0.00000001        0.00000000
     179         -1.080415        1.000000        0.00000001        0.00000008        0.00000000
     180         -1.080047        1.000000        0.00000001        0.00000002        0.00000000
     181         -1.077309        1.000000        0.00000002        0.00000017        0.00000002
     182         -1.076601        1.000000        0.00000000        0.00000001        0.00000000
     183         -1.076342        1.000000        0.00000000        0.00000001        0.00000000
     184         -1.076154        1.000000        0.00000001        0.00000004        0.00000000
     185         -1.075469        1.000000        0.00000002        0.00000011        0.00000001
     186         -1.074904        1.000000        0.00000001        0.00000002        0.00000000
     187         -1.074160        1.000000        0.00000000        0.00000004        0.00000000
     188         -1.073364        1.000000        0.00000000        0.00000000        0.00000000
     189         -1.071841        1.000000        0.00000001        0.00000012        0.00000000
     190         -1.071436        1.000000        0.00000002        0.00000002        0.00000000
     191         -1.070358        1.000000        0.00000002        0.00000004        0.00000000
     192         -1.070160        1.000000        0.00000000        0.00000003        0.00000000
     193         -1.069551        1.000000        0.00000003        0.00000033        0.00000001
     194         -1.069042        1.000000        0.00000000        0.00000001        0.00000000
     195         -1.068018        1.000000        0.00000003        0.00000030        0.00000001
     196         -1.067683        1.000000        0.00000000        0.00000002        0.00000000
     197         -1.067094        1.000000        0.00000000        0.00000000        0.00000000
     198         -1.066200        1.000000        0.00000001        0.00000005        0.00000000
     199         -1.065105        1.000000        0.00000001        0.00000001        0.00000000
     200         -1.064600        1.000000        0.00000003        0.00000011        0.00000000
     201         -1.063825        1.000000        0.00000000        0.00000001        0.00000000
     202         -1.063672        1.000000        0.00000002        0.00000008        0.00000001
     203         -1.062915        1.000000        0.00000000        0.00000005        0.00000000
     204         -1.062259        1.000000        0.00000001        0.00000007        0.00000001
     205         -1.061986        1.000000        0.00000002        0.00000012        0.00000001
     206         -1.060822        1.000000        0.00000000        0.00000004        0.00000000
     207         -1.060230        1.000000        0.00000001        0.00000003        0.00000000
     208         -1.059971        1.000000        0.00000001        0.00000001        0.00000000
     209         -1.059399        1.000000        0.00000004        0.00000053        0.00000002
     210         -1.058798        1.000000        0.00000002        0.00000032        0.00000001
     211         -1.058498        1.000000        0.00000002        0.00000027        0.00000001
     212         -1.057049        1.000000        0.00000016        0.00000216        0.00000007
     213         -1.056896        1.000000        0.00000024        0.00000335        0.00000012
     214         -1.056403        1.000000        0.00000000        0.00000003        0.00000000
     215         -1.056079        1.000000        0.00000002        0.00000028        0.00000001
     216         -1.055624        1.000000        0.00000000        0.00000000        0.00000000
     217         -1.055288        1.000000        0.00000001        0.00000012        0.00000000
     218         -1.054828        1.000000        0.00000000        0.00000001        0.00000000
     219         -1.054413        1.000000        0.00000000        0.00000002        0.00000000
     220         -1.053990        1.000000        0.00000001        0.00000004        0.00000000
     221         -1.053598        1.000000        0.00000000        0.00000002        0.00000000
     222         -1.053387        1.000000        0.00000000        0.00000006        0.00000000
     223         -1.052953        1.000000        0.00000000        0.00000002        0.00000000
     224         -1.052779        1.000000        0.00000000        0.00000000        0.00000000
     225         -1.052376        1.000000        0.00000000        0.00000001        0.00000000
     226         -1.052297        1.000000        0.00000000        0.00000003        0.00000000
     227         -1.051819        1.000000        0.00000000        0.00000000        0.00000000
     228         -1.051536        1.000000        0.00000001        0.00000003        0.00000000
     229         -1.051232        1.000000        0.00000000        0.00000002        0.00000000
     230         -1.050581        1.000000        0.00000000        0.00000002        0.00000000
     231         -1.050140        1.000000        0.00000001        0.00000015        0.00000001
     232         -1.049834        1.000000        0.00000000        0.00000003        0.00000000
     233         -1.049588        1.000000        0.00000000        0.00000001        0.00000000
     234         -1.049506        1.000000        0.00000000        0.00000000        0.00000000
     235         -1.048565        1.000000        0.00000000        0.00000003        0.00000000
     236         -1.048103        1.000000        0.00000001        0.00000007        0.00000000
     237         -1.048023        1.000000        0.00000002        0.00000018        0.00000001
     238         -1.047651        1.000000        0.00000000        0.00000005        0.00000000
     239         -1.047305        1.000000        0.00000000        0.00000001        0.00000000
     240         -1.046707        1.000000        0.00000000        0.00000001        0.00000000
     241         -1.046592        1.000000        0.00000000        0.00000002        0.00000001
     242         -1.046281        1.000000        0.00000000        0.00000002        0.00000000
     243         -1.045974        1.000000        0.00000005        0.00000051        0.00000002
     244         -1.045866        1.000000        0.00000000        0.00000000        0.00000000
     245         -1.045771        1.000000        0.00000000        0.00000001        0.00000000
     246         -1.045301        1.000000        0.00000001        0.00000011        0.00000000
     247         -1.045020        1.000000        0.00000000        0.00000001        0.00000000
     248         -1.043956        1.000000        0.00000000        0.00000005        0.00000000
     249         -1.043818        1.000000        0.00000001        0.00000010        0.00000000
     250         -1.043244        1.000000        0.00000000        0.00000003        0.00000000
     251         -1.043119        1.000000        0.00000000        0.00000000        0.00000000
     252         -1.042993        1.000000        0.00000000        0.00000002        0.00000000
     253         -1.042515        1.000000        0.00000000        0.00000001        0.00000000
     254         -1.041302        1.000000        0.00000000        0.00000000        0.00000000
     255         -1.041116        1.000000        0.00000000        0.00000001        0.00000000
     256         -1.040594        1.000000        0.00000000        0.00000001        0.00000000
     257         -1.040094        1.000000        0.00000000        0.00000001        0.00000000
     258         -1.039599        1.000000        0.00000000        0.00000001        0.00000000
     259         -1.039408        1.000000        0.00000000        0.00000000        0.00000000
     260         -1.038970        1.000000        0.00000000        0.00000001        0.00000000
     261         -1.038561        1.000000        0.00000000        0.00000000        0.00000000
     262         -1.038022        1.000000        0.00000000        0.00000000        0.00000000
     263         -1.037841        1.000000        0.00000000        0.00000001        0.00000000
     264         -1.036991        1.000000        0.00000000        0.00000000        0.00000000
     265         -1.036854        1.000000        0.00000000        0.00000002        0.00000000
     266         -1.035910        1.000000        0.00000000        0.00000000        0.00000000
     267         -1.035115        1.000000        0.00000000        0.00000001        0.00000000
     268         -1.034275        1.000000        0.00000000        0.00000001        0.00000000
     269         -1.033697        1.000000        0.00000000        0.00000000        0.00000000
     270         -1.033444        1.000000        0.00000000        0.00000001        0.00000000
     271         -1.033385        1.000000        0.00000000        0.00000000        0.00000000
     272         -1.033262        1.000000        0.00000000        0.00000000        0.00000000
     273         -1.032346        1.000000        0.00000001        0.00000010        0.00000000
     274         -1.031626        1.000000        0.00000000        0.00000000        0.00000000
     275         -1.030746        1.000000        0.00000000        0.00000000        0.00000000
     276         -1.029780        1.000000        0.00000000        0.00000000        0.00000000
     277         -1.028980        1.000000        0.00000000        0.00000000        0.00000000
     278         -1.027492        1.000000        0.00000000        0.00000000        0.00000000
     279         -1.025795        1.000000        0.00000000        0.00000000        0.00000000
     280         -1.023990        1.000000        0.00000000        0.00000000        0.00000000
     281         -1.022755        1.000000        0.00000000        0.00000000        0.00000000
     282         -1.019871        1.000000        0.00000000        0.00000000        0.00000000
     283         -1.017737        1.000000        0.00000001        0.00000003        0.00000000
     284         -1.012409        1.000000        0.00000000        0.00000000        0.00000000
     285         -1.010522        1.000000        0.00000000        0.00000000        0.00000000
     286         -0.880961        1.000000        0.00484422        0.00020959        0.00000655
     287         -0.861761        1.000000        0.01019806        0.00060073        0.00002820
     288         -0.860652        1.000000        0.00019898        0.00057070        0.00002287
     289         -0.854811        1.000000        0.00451325        0.00118428        0.00002227
     290         -0.853189        1.000000        0.01192493        0.00047891        0.00000549
     291         -0.838407        1.000000        0.00503386        0.00018023        0.00003003
     292         -0.837131        1.000000        0.00857890        0.00217955        0.00002628
     293         -0.835422        1.000000        0.01426107        0.00091939        0.00002065
     294         -0.832873        1.000000        0.00813738        0.00138943        0.00005648
     295         -0.813092        1.000000        0.00130916        0.00069432        0.00002116
     296         -0.811309        1.000000        0.00975812        0.00057703        0.00015250
     297         -0.805633        1.000000        0.00131433        0.00020059        0.00010055
     298         -0.800994        1.000000        0.00074107        0.00010878        0.00003924
     299         -0.798544        1.000000        0.00019950        0.00025699        0.00001523
     300         -0.797176        1.000000        0.00015246        0.00105106        0.00002874
     301         -0.796065        1.000000        0.00218431        0.00013253        0.00008742
     302         -0.795247        1.000000        0.00467528        0.00019965        0.00003011
     303         -0.794465        1.000000        0.00007919        0.00135261        0.00001787
     304         -0.792558        1.000000        0.02515936        0.00145522        0.00012241
     305         -0.791532        1.000000        0.00064154        0.00003393        0.00003369
     306         -0.790931        1.000000        0.02081620        0.00080621        0.00008581
     307         -0.790366        1.000000        0.02841528        0.00066438        0.00009850