# Projected DOS for list 331 of 1 atoms, at iteration step i = 0, E(Fermi) =    -0.237583 a.u.
#     MO Eigenvalue [a.u.]      Occupation                 s                 p                 d
       1         -3.115895        1.000000        0.00000003        0.00000078        0.00000011
       2         -3.112717        1.000000        0.00000101        0.00000083        0.00000009
       3         -3.112103        1.000000        0.00000011        0.00000038        0.00000016
       4         -3.111180        1.000000        0.00000007        0.00000056        0.00000037
       5         -3.110810        1.000000        0.00000731        0.00004179        0.00000424
       6         -3.110575        1.000000        0.00000319        0.00000280        0.00000118
       7         -3.110067        1.000000        0.00014180        0.00025749        0.00002331
       8         -3.109817        1.000000        0.00000010        0.00001871        0.00000504
       9         -3.109660        1.000000        0.00000006        0.00000109        0.00000009
      10         -3.108831        1.000000        0.00055947        0.00037655        0.00000174
      11         -3.108678        1.000000        0.00128316        0.00153359        0.00007219
      12         -3.108578        1.000000        0.00018740        0.00110373        0.00011054
      13         -3.108350        1.000000        0.00001060        0.00007543        0.00001102
      14         -3.108163        1.000000        0.00043468        0.00077931        0.00005586
      15         -3.107948        1.000000        0.00040547        0.00076290        0.00005384
      16         -3.107865        1.000000        0.00023354        0.00084784        0.00008254
      17         -3.107703        1.000000        0.00001717        0.00008304        0.00001175
      18         -3.107683        1.000000        0.00001500        0.00006063        0.00001054
      19         -3.107641        1.000000        0.00001531        0.00005314        0.00000403
      20         -3.107604        1.000000        0.00002950        0.00005900        0.00000355
      21         -3.107402        1.000000        0.00000187        0.00032647        0.00003614
      22         -3.107115        1.000000        0.00026169        0.00029818        0.00002962
      23         -3.107013        1.000000        0.00064476        0.00235211        0.00031360
      24         -3.106750        1.000000        0.00004543        0.00004910        0.00000978
      25         -3.106619        1.000000        0.00016931        0.00067794        0.00009848
      26         -3.106567        1.000000        0.00000166        0.00003428        0.00000858
      27         -3.106546        1.000000        0.00000018        0.00001032        0.00000100
      28         -3.106258        1.000000        0.00005675        0.00029049        0.00005245
      29         -3.106103        1.000000        0.00272912        0.00680588        0.00063462
      30         -3.104674        1.000000        0.00148916        0.00739378        0.00108433
      31         -1.775522        1.000000        0.00014538        0.00038676        0.00002277
      32         -1.773964        1.000000        0.00004839        0.00012347        0.00001196
      33         -1.773454        1.000000        0.00000483        0.00001546        0.00000250
      34         -1.773008        1.000000        0.00000080        0.00002996        0.00001320
      35         -1.772581        1.000000        0.00019074        0.00050687        0.00006504
      36         -1.772213        1.000000        0.00013843        0.00038633        0.00002843
      37         -1.771852        1.000000        0.00000864        0.00019113        0.00009214
      38         -1.771444        1.000000        0.00065281        0.00158054        0.00013983
      39         -1.771233        1.000000        0.00001665        0.00004107        0.00000390
      40         -1.770977        1.000000        0.00016165        0.00034901        0.00001775
      41         -1.770760        1.000000        0.00000154        0.00005623        0.00003541
      42         -1.770111        1.000000        0.00001107        0.00004672        0.00001425
      43         -1.770034        1.000000        0.00066649        0.00162676        0.00008571
      44         -1.769495        1.000000        0.00015214        0.00083167        0.00022770
      45         -1.769421        1.000000        0.00033196        0.00086528        0.00014731
      46         -1.769063        1.000000        0.00014912        0.00034555        0.00001652
      47         -1.768532        1.000000        0.00004423        0.00011482        0.00001748
      48         -1.768412        1.000000        0.00000188        0.00026155        0.00011635
      49         -1.767811        1.000000        0.00002377        0.00026603        0.00010739
      50         -1.767614        1.000000        0.00000240        0.00001327        0.00000514
      51         -1.767477        1.000000        0.00016299        0.00037727        0.00002407
      52         -1.765531        1.000000        0.00003043        0.00026140        0.00010602
      53         -1.765088        1.000000        0.00003920        0.00006880        0.00000450
      54         -1.764557        1.000000        0.00002644        0.00014787        0.00006189
      55         -1.763772        1.000000        0.00002813        0.00008486        0.00001752
      56         -1.763328        1.000000        0.00001635        0.00004862        0.00001827
      57         -1.762925        1.000000        0.00020355        0.00035439        0.00004033
      58         -1.762506        1.000000        0.00010787        0.00020394        0.00002889
      59         -1.762119        1.000000        0.00008250        0.00012194        0.00001764
      60         -1.762053        1.000000        0.00003278        0.00004246        0.00001167
      61         -1.761895        1.000000        0.00011199        0.00020850        0.00002138
      62         -1.761602        1.000000        0.00019128        0.00042587        0.00004591
      63         -1.761509        1.000000        0.00003137        0.00026521        0.00005453
      64         -1.761377        1.000000        0.00002440        0.00053198        0.00023866
      65         -1.761171        1.000000        0.00003296        0.00005087        0.00001531
      66         -1.760998        1.000000        0.00011044        0.00016382        0.00000913
      67         -1.760877        1.000000        0.00006543        0.00047241        0.00022671
      68         -1.760806        1.000000        0.00002408        0.00025696        0.00011614
      69         -1.760684        1.000000        0.00016571        0.00071234        0.00020719
      70         -1.760645        1.000000        0.00033377        0.00058936        0.00004363
      71         -1.760442        1.000000        0.00000953        0.00004784        0.00001264
      72         -1.760098        1.000000        0.00003451        0.00008640        0.00001500
      73         -1.759962        1.000000        0.00009020        0.00026965        0.00005063
      74         -1.759824        1.000000        0.00003616        0.00071703        0.00027525
      75         -1.759787        1.000000        0.00006318        0.00050226        0.00019417
      76         -1.759638        1.000000        0.00001456        0.00020326        0.00009535
      77         -1.759601        1.000000        0.00000076        0.00018467        0.00005731
      78         -1.759512        1.000000        0.00000623        0.00002182        0.00000903
      79         -1.759406        1.000000        0.00000729        0.00050921        0.00024122
      80         -1.759287        1.000000        0.00000020        0.00006970        0.00003780
      81         -1.759176        1.000000        0.00031634        0.00098392        0.00025612
      82         -1.758872        1.000000        0.00002879        0.00012215        0.00003316
      83         -1.758781        1.000000        0.00003315        0.00045781        0.00010085
      84         -1.758726        1.000000        0.00002347        0.00003988        0.00000563
      85         -1.758559        1.000000        0.00010825        0.00026094        0.00008769
      86         -1.758378        1.000000        0.00000018        0.00010367        0.00003289
      87         -1.758294        1.000000        0.00000991        0.00013265        0.00005262
      88         -1.758087        1.000000        0.00007619        0.00013170        0.00000359
      89         -1.757987        1.000000        0.00012167        0.00025792        0.00008509
      90         -1.757734        1.000000        0.00000492        0.00004664        0.00001157
      91         -1.757649        1.000000        0.00002751        0.00009166        0.00002744
      92         -1.757529        1.000000        0.00003896        0.00058627        0.00023812
      93         -1.757404        1.000000        0.00001605        0.00013633        0.00002757
      94         -1.757324        1.000000        0.00000791        0.00008852        0.00004313
      95         -1.757187        1.000000        0.00012363        0.00201365        0.00090841
      96         -1.757137        1.000000        0.00004107        0.00047542        0.00013110
      97         -1.756770        1.000000        0.00000128        0.00014215        0.00006762
      98         -1.756598        1.000000        0.00004420        0.00152466        0.00075316
      99         -1.756513        1.000000        0.00000422        0.00011818        0.00005517
     100         -1.756186        1.000000        0.00000469        0.00016333        0.00012566
     101         -1.755847        1.000000        0.00000943        0.00020193        0.00010535
     102         -1.755716        1.000000        0.00000347        0.00026237        0.00013288
     103         -1.755306        1.000000        0.00011577        0.00021986        0.00002105
     104         -1.755052        1.000000        0.00000421        0.00010814        0.00003743
     105         -1.754765        1.000000        0.00003299        0.00013543        0.00004534
     106         -1.754094        1.000000        0.00000800        0.00011092        0.00006066
     107         -1.753681        1.000000        0.00000603        0.00011914        0.00012006
     108         -1.753548        1.000000        0.00000063        0.00002588        0.00003861
     109         -1.753256        1.000000        0.00000179        0.00006828        0.00002186
     110         -1.752675        1.000000        0.00004853        0.00016502        0.00007026
     111         -1.752502        1.000000        0.00002033        0.00026103        0.00014251
     112         -1.752253        1.000000        0.00000835        0.00005262        0.00005158
     113         -1.751643        1.000000        0.00000654        0.00001041        0.00000749
     114         -1.751317        1.000000        0.00014694        0.00078537        0.00023599
     115         -1.749193        1.000000        0.00000011        0.00003277        0.00001518
     116         -1.748137        1.000000        0.00000047        0.00006377        0.00002039
     117         -1.747283        1.000000        0.00000237        0.00029919        0.00016884
     118         -1.745962        1.000000        0.00000009        0.00005680        0.00001625
     119         -1.745880        1.000000        0.00000144        0.00010844        0.00010187
     120         -1.744143        1.000000        0.00000825        0.00058756        0.00052987
     121         -1.145318        1.000000        0.00000007        0.00000009        0.00000000
     122         -1.141162        1.000000        0.00000009        0.00000014        0.00000001
     123         -1.135518        1.000000        0.00000033        0.00000035        0.00000001
     124         -1.134356        1.000000        0.00000011        0.00000011        0.00000001
     125         -1.132797        1.000000        0.00000001        0.00000001        0.00000000
     126         -1.131675        1.000000        0.00000005        0.00000007        0.00000000
     127         -1.130657        1.000000        0.00000000        0.00000001        0.00000000
     128         -1.129329        1.000000        0.00000012        0.00000016        0.00000001
     129         -1.127805        1.000000        0.00000005        0.00000007        0.00000000
     130         -1.126970        1.000000        0.00000042        0.00000075        0.00000004
     131         -1.125100        1.000000        0.00000020        0.00000031        0.00000002
     132         -1.124640        1.000000        0.00000000        0.00000001        0.00000000
     133         -1.122028        1.000000        0.00000003        0.00000013        0.00000001
     134         -1.120887        1.000000        0.00000000        0.00000000        0.00000000
     135         -1.119308        1.000000        0.00000081        0.00000156        0.00000008
     136         -1.118408        1.000000        0.00000029        0.00000080        0.00000005
     137         -1.117769        1.000000        0.00000007        0.00000020        0.00000001
     138         -1.116570        1.000000        0.00000103        0.00000318        0.00000020
     139         -1.115096        1.000000        0.00000033        0.00000086        0.00000005
     140         -1.114402        1.000000        0.00000001        0.00000001        0.00000000
     141         -1.114039        1.000000        0.00000000        0.00000001        0.00000000
     142         -1.112381        1.000000        0.00000001        0.00000000        0.00000000
     143         -1.111588        1.000000        0.00000022        0.00000093        0.00000007
     144         -1.111356        1.000000        0.00000002        0.00000006        0.00000001
     145         -1.110913        1.000000        0.00000003        0.00000009        0.00000001
     146         -1.109631        1.000000        0.00000024        0.00000092        0.00000006
     147         -1.107338        1.000000        0.00000000        0.00000004        0.00000000
     148         -1.107163        1.000000        0.00000010        0.00000057        0.00000005
     149         -1.106911        1.000000        0.00000073        0.00000363        0.00000027
     150         -1.105904        1.000000        0.00000006        0.00000034        0.00000002
     151         -1.104513        1.000000        0.00000364        0.00001910        0.00000146
     152         -1.103753        1.000000        0.00001010        0.00004919        0.00000368
     153         -1.103233        1.000000        0.00000000        0.00000006        0.00000001
     154         -1.101116        1.000000        0.00000000        0.00000011        0.00000002
     155         -1.099878        1.000000        0.00000027        0.00000155        0.00000014
     156         -1.099527        1.000000        0.00000079        0.00000398        0.00000033
     157         -1.099360        1.000000        0.00000002        0.00000015        0.00000001
     158         -1.097449        1.000000        0.00000002        0.00000024        0.00000003
     159         -1.097246        1.000000        0.00000000        0.00000005        0.00000001
     160         -1.096336        1.000000        0.00000005        0.00000011        0.00000001
     161         -1.095776        1.000000        0.00000007        0.00000011        0.00000000
     162         -1.094258        1.000000        0.00000033        0.00000104        0.00000008
     163         -1.093701        1.000000        0.00000000        0.00000001        0.00000000
     164         -1.093107        1.000000        0.00000031        0.00000055        0.00000004
     165         -1.091600        1.000000        0.00000009        0.00000019        0.00000002
     166         -1.090890        1.000000        0.00000001        0.00000001        0.00000000
     167         -1.090283        1.000000        0.00000000        0.00000000        0.00000000
     168         -1.089378        1.000000        0.00000009        0.00000011        0.00000001
     169         -1.088506        1.000000        0.00000001        0.00000003        0.00000001
     170         -1.086931        1.000000        0.00000006        0.00000004        0.00000000
     171         -1.086367        1.000000        0.00000001        0.00000000        0.00000000
     172         -1.085327        1.000000        0.00000000        0.00000001        0.00000000
     173         -1.084766        1.000000        0.00000001        0.00000000        0.00000000
     174         -1.083961        1.000000        0.00000000        0.00000000        0.00000000
     175         -1.082920        1.000000        0.00000001        0.00000000        0.00000000
     176         -1.081700        1.000000        0.00000001        0.00000000        0.00000000
     177         -1.081031        1.000000        0.00000001        0.00000000        0.00000000
     178         -1.080558        1.000000        0.00000001        0.00000004        0.00000001
     179         -1.080415        1.000000        0.00000001        0.00000002        0.00000000
     180         -1.080047        1.000000        0.00000000        0.00000001        0.00000000
     181         -1.077309        1.000000        0.00000006        0.00000003        0.00000000
     182         -1.076601        1.000000        0.00000000        0.00000002        0.00000000
     183         -1.076342        1.000000        0.00000000        0.00000002        0.00000000
     184         -1.076154        1.000000        0.00000000        0.00000008        0.00000002
     185         -1.075469        1.000000        0.00000000        0.00000004        0.00000001
     186         -1.074904        1.000000        0.00000000        0.00000000        0.00000000
     187         -1.074160        1.000000        0.00000001        0.00000006        0.00000001
     188         -1.073364        1.000000        0.00000000        0.00000002        0.00000000
     189         -1.071841        1.000000        0.00000002        0.00000006        0.00000001
     190         -1.071436        1.000000        0.00000002        0.00000002        0.00000000
     191         -1.070358        1.000000        0.00000005        0.00000020        0.00000003
     192         -1.070160        1.000000        0.00000008        0.00000006        0.00000000
     193         -1.069551        1.000000        0.00000001        0.00000003        0.00000000
     194         -1.069042        1.000000        0.00000001        0.00000004        0.00000000
     195         -1.068018        1.000000        0.00000001        0.00000013        0.00000002
     196         -1.067683        1.000000        0.00000008        0.00000015        0.00000002
     197         -1.067094        1.000000        0.00000002        0.00000004        0.00000001
     198         -1.066200        1.000000        0.00000003        0.00000006        0.00000001
     199         -1.065105        1.000000        0.00000008        0.00000046        0.00000004
     200         -1.064600        1.000000        0.00000001        0.00000007        0.00000000
     201         -1.063825        1.000000        0.00000038        0.00000193        0.00000013
     202         -1.063672        1.000000        0.00000008        0.00000052        0.00000003
     203         -1.062915        1.000000        0.00000003        0.00000005        0.00000001
     204         -1.062259        1.000000        0.00000001        0.00000007        0.00000001
     205         -1.061986        1.000000        0.00000015        0.00000035        0.00000001
     206         -1.060822        1.000000        0.00000003        0.00000008        0.00000001
     207         -1.060230        1.000000        0.00000001        0.00000006        0.00000000
     208         -1.059971        1.000000        0.00000004        0.00000004        0.00000001
     209         -1.059399        1.000000        0.00000001        0.00000001        0.00000000
     210         -1.058798        1.000000        0.00000000        0.00000000        0.00000000
     211         -1.058498        1.000000        0.00000001        0.00000000        0.00000000
     212         -1.057049        1.000000        0.00000004        0.00000022        0.00000001
     213         -1.056896        1.000000        0.00000001        0.00000004        0.00000000
     214         -1.056403        1.000000        0.00000008        0.00000019        0.00000002
     215         -1.056079        1.000000        0.00000000        0.00000002        0.00000000
     216         -1.055624        1.000000        0.00000001        0.00000003        0.00000000
     217         -1.055288        1.000000        0.00000000        0.00000001        0.00000000
     218         -1.054828        1.000000        0.00000002        0.00000009        0.00000000
     219         -1.054413        1.000000        0.00000000        0.00000005        0.00000001
     220         -1.053990        1.000000        0.00000001        0.00000002        0.00000001
     221         -1.053598        1.000000        0.00000000        0.00000001        0.00000001
     222         -1.053387        1.000000        0.00000004        0.00000017        0.00000005
     223         -1.052953        1.000000        0.00000001        0.00000003        0.00000000
     224         -1.052779        1.000000        0.00000001        0.00000004        0.00000001
     225         -1.052376        1.000000        0.00000001        0.00000004        0.00000001
     226         -1.052297        1.000000        0.00000001        0.00000002        0.00000000
     227         -1.051819        1.000000        0.00000006        0.00000018        0.00000001
     228         -1.051536        1.000000        0.00000012        0.00000023        0.00000001
     229         -1.051232        1.000000        0.00000001        0.00000003        0.00000000
     230         -1.050581        1.000000        0.00000001        0.00000002        0.00000000
     231         -1.050140        1.000000        0.00000004        0.00000018        0.00000001
     232         -1.049834        1.000000        0.00000000        0.00000000        0.00000000
     233         -1.049588        1.000000        0.00000000        0.00000000        0.00000000
     234         -1.049506        1.000000        0.00000000        0.00000001        0.00000000
     235         -1.048565        1.000000        0.00000003        0.00000008        0.00000000
     236         -1.048103        1.000000        0.00000003        0.00000014        0.00000000
     237         -1.048023        1.000000        0.00000000        0.00000002        0.00000000
     238         -1.047651        1.000000        0.00000000        0.00000005        0.00000000
     239         -1.047305        1.000000        0.00000001        0.00000012        0.00000001
     240         -1.046707        1.000000        0.00000003        0.00000005        0.00000000
     241         -1.046592        1.000000        0.00000002        0.00000005        0.00000000
     242         -1.046281        1.000000        0.00000002        0.00000008        0.00000000
     243         -1.045974        1.000000        0.00000018        0.00000081        0.00000002
     244         -1.045866        1.000000        0.00000002        0.00000004        0.00000000
     245         -1.045771        1.000000        0.00000021        0.00000068        0.00000001
     246         -1.045301        1.000000        0.00000034        0.00000169        0.00000007
     247         -1.045020        1.000000        0.00000014        0.00000027        0.00000000
     248         -1.043956        1.000000        0.00000112        0.00000540        0.00000015
     249         -1.043818        1.000000        0.00000002        0.00000014        0.00000000
     250         -1.043244        1.000000        0.00000025        0.00000134        0.00000004
     251         -1.043119        1.000000        0.00000001        0.00000005        0.00000000
     252         -1.042993        1.000000        0.00000017        0.00000093        0.00000004
     253         -1.042515        1.000000        0.00000069        0.00000382        0.00000015
     254         -1.041302        1.000000        0.00000000        0.00000001        0.00000000
     255         -1.041116        1.000000        0.00000001        0.00000001        0.00000000
     256         -1.040594        1.000000        0.00000002        0.00000009        0.00000000
     257         -1.040094        1.000000        0.00000001        0.00000006        0.00000000
     258         -1.039599        1.000000        0.00000001        0.00000002        0.00000000
     259         -1.039408        1.000000        0.00000005        0.00000019        0.00000000
     260         -1.038970        1.000000        0.00000001        0.00000006        0.00000000
     261         -1.038561        1.000000        0.00000001        0.00000002        0.00000000
     262         -1.038022        1.000000        0.00000000        0.00000000        0.00000000
     263         -1.037841        1.000000        0.00000001        0.00000006        0.00000000
     264         -1.036991        1.000000        0.00000000        0.00000000        0.00000000
     265         -1.036854        1.000000        0.00000001        0.00000002        0.00000000
     266         -1.035910        1.000000        0.00000000        0.00000000        0.00000000
     267         -1.035115        1.000000        0.00000000        0.00000000        0.00000000
     268         -1.034275        1.000000        0.00000000        0.00000000        0.00000000
     269         -1.033697        1.000000        0.00000000        0.00000000        0.00000000
     270         -1.033444        1.000000        0.00000000        0.00000000        0.00000000
     271         -1.033385        1.000000        0.00000000        0.00000000        0.00000000
     272         -1.033262        1.000000        0.00000000        0.00000000        0.00000000
     273         -1.032346        1.000000        0.00000001        0.00000003        0.00000001
     274         -1.031626        1.000000        0.00000000        0.00000000        0.00000000
     275         -1.030746        1.000000        0.00000000        0.00000000        0.00000000
     276         -1.029780        1.000000        0.00000000        0.00000000        0.00000000
     277         -1.028980        1.000000        0.00000000        0.00000000        0.00000000
     278         -1.027492        1.000000        0.00000000        0.00000001        0.00000000
     279         -1.025795        1.000000        0.00000001        0.00000008        0.00000002
     280         -1.023990        1.000000        0.00000000        0.00000000        0.00000000
     281         -1.022755        1.000000        0.00000000        0.00000000        0.00000000
     282         -1.019871        1.000000        0.00000000        0.00000000        0.00000000
     283         -1.017737        1.000000        0.00000005        0.00000014        0.00000001
     284         -1.012409        1.000000        0.00000000        0.00000000        0.00000000
     285         -1.010522        1.000000        0.00000000        0.00000000        0.00000000
     286         -0.880961        1.000000        0.00953308        0.00052406        0.00000550
     287         -0.861761        1.000000        0.01358467        0.00079870        0.00001956
     288         -0.860652        1.000000        0.00000803        0.00094260        0.00004342
     289         -0.854811        1.000000        0.00409089        0.00120755        0.00003786
     290         -0.853189        1.000000        0.01432051        0.00072359        0.00000767
     291         -0.838407        1.000000        0.00622451        0.00020816        0.00004704
     292         -0.837131        1.000000        0.00280427        0.00140228        0.00004202
     293         -0.835422        1.000000        0.01444373        0.00099509        0.00002407
     294         -0.832873        1.000000        0.00421561        0.00090698        0.00004578
     295         -0.813092        1.000000        0.01402119        0.00114579        0.00002449
     296         -0.811309        1.000000        0.01573460        0.00042523        0.00011713
     297         -0.805633        1.000000        0.00438576        0.00013992        0.00007267
     298         -0.800994        1.000000        0.02706128        0.00084407        0.00016054
     299         -0.798544        1.000000        0.00058244        0.00075471        0.00000468
     300         -0.797176        1.000000        0.00136099        0.00038395        0.00010314
     301         -0.796065        1.000000        0.01399105        0.00029457        0.00007508
     302         -0.795247        1.000000        0.00024955        0.00014161        0.00004175
     303         -0.794465        1.000000        0.00034900        0.00062680        0.00004332
     304         -0.792558        1.000000        0.03232143        0.00046360        0.00006247
     305         -0.791532        1.000000        0.00047465        0.00305725        0.00001518
     306         -0.790931        1.000000        0.00025467        0.00079731        0.00011689
     307         -0.790366        1.000000        0.00420358        0.00024934        0.00007235