# Projected DOS for atomic kind Ot at iteration step i = 0, E(Fermi) =    -0.237583 a.u.
#     MO Eigenvalue [a.u.]      Occupation                 s                 p                 d
       1         -3.115895        1.000000        0.00000016        0.00000022        0.00000023
       2         -3.112717        1.000000        0.00000022        0.00000102        0.00000043
       3         -3.112103        1.000000        0.00000082        0.00000318        0.00000078
       4         -3.111180        1.000000        0.00000020        0.00000057        0.00000014
       5         -3.110810        1.000000        0.00000013        0.00000076        0.00000024
       6         -3.110575        1.000000        0.00000026        0.00000097        0.00000028
       7         -3.110067        1.000000        0.00000034        0.00000161        0.00000040
       8         -3.109817        1.000000        0.00000035        0.00000204        0.00000057
       9         -3.109660        1.000000        0.00000082        0.00000131        0.00000075
      10         -3.108831        1.000000        0.00000056        0.00000234        0.00000101
      11         -3.108678        1.000000        0.00000062        0.00000165        0.00000048
      12         -3.108578        1.000000        0.00000033        0.00000114        0.00000027
      13         -3.108350        1.000000        0.00000051        0.00000204        0.00000053
      14         -3.108163        1.000000        0.00000024        0.00000084        0.00000025
      15         -3.107948        1.000000        0.00000015        0.00000059        0.00000020
      16         -3.107865        1.000000        0.00000012        0.00000061        0.00000017
      17         -3.107703        1.000000        0.00000008        0.00000035        0.00000009
      18         -3.107683        1.000000        0.00000006        0.00000020        0.00000006
      19         -3.107641        1.000000        0.00000009        0.00000033        0.00000012
      20         -3.107604        1.000000        0.00000007        0.00000023        0.00000008
      21         -3.107402        1.000000        0.00000005        0.00000021        0.00000009
      22         -3.107115        1.000000        0.00000006        0.00000019        0.00000008
      23         -3.107013        1.000000        0.00000018        0.00000044        0.00000017
      24         -3.106750        1.000000        0.00000019        0.00000120        0.00000019
      25         -3.106619        1.000000        0.00000011        0.00000033        0.00000008
      26         -3.106567        1.000000        0.00000007        0.00000019        0.00000003
      27         -3.106546        1.000000        0.00000008        0.00000014        0.00000005
      28         -3.106258        1.000000        0.00000022        0.00000148        0.00000021
      29         -3.106103        1.000000        0.00000005        0.00000037        0.00000007
      30         -3.104674        1.000000        0.00000007        0.00000010        0.00000006
      31         -1.775522        1.000000        0.00000002        0.00000015        0.00000003
      32         -1.773964        1.000000        0.00000001        0.00000004        0.00000001
      33         -1.773454        1.000000        0.00000002        0.00000015        0.00000003
      34         -1.773008        1.000000        0.00000003        0.00000020        0.00000004
      35         -1.772581        1.000000        0.00000002        0.00000013        0.00000003
      36         -1.772213        1.000000        0.00000001        0.00000005        0.00000001
      37         -1.771852        1.000000        0.00000002        0.00000018        0.00000003
      38         -1.771444        1.000000        0.00000002        0.00000016        0.00000004
      39         -1.771233        1.000000        0.00000003        0.00000025        0.00000005
      40         -1.770977        1.000000        0.00000004        0.00000029        0.00000005
      41         -1.770760        1.000000        0.00000003        0.00000026        0.00000004
      42         -1.770111        1.000000        0.00000004        0.00000029        0.00000005
      43         -1.770034        1.000000        0.00000002        0.00000020        0.00000003
      44         -1.769495        1.000000        0.00000001        0.00000005        0.00000002
      45         -1.769421        1.000000        0.00000002        0.00000013        0.00000004
      46         -1.769063        1.000000        0.00000002        0.00000014        0.00000003
      47         -1.768532        1.000000        0.00000003        0.00000025        0.00000005
      48         -1.768412        1.000000        0.00000003        0.00000026        0.00000005
      49         -1.767811        1.000000        0.00000001        0.00000010        0.00000003
      50         -1.767614        1.000000        0.00000001        0.00000008        0.00000003
      51         -1.767477        1.000000        0.00000002        0.00000015        0.00000005
      52         -1.765531        1.000000        0.00000001        0.00000005        0.00000001
      53         -1.765088        1.000000        0.00000003        0.00000025        0.00000003
      54         -1.764557        1.000000        0.00000001        0.00000005        0.00000001
      55         -1.763772        1.000000        0.00000002        0.00000021        0.00000003
      56         -1.763328        1.000000        0.00000001        0.00000014        0.00000002
      57         -1.762925        1.000000        0.00000001        0.00000009        0.00000002
      58         -1.762506        1.000000        0.00000002        0.00000015        0.00000003
      59         -1.762119        1.000000        0.00000002        0.00000018        0.00000003
      60         -1.762053        1.000000        0.00000001        0.00000007        0.00000002
      61         -1.761895        1.000000        0.00000001        0.00000008        0.00000003
      62         -1.761602        1.000000        0.00000002        0.00000015        0.00000003
      63         -1.761509        1.000000        0.00000002        0.00000020        0.00000003
      64         -1.761377        1.000000        0.00000002        0.00000014        0.00000003
      65         -1.761171        1.000000        0.00000001        0.00000008        0.00000003
      66         -1.760998        1.000000        0.00000002        0.00000013        0.00000004
      67         -1.760877        1.000000        0.00000002        0.00000012        0.00000003
      68         -1.760806        1.000000        0.00000003        0.00000017        0.00000003
      69         -1.760684        1.000000        0.00000001        0.00000007        0.00000002
      70         -1.760645        1.000000        0.00000001        0.00000009        0.00000003
      71         -1.760442        1.000000        0.00000002        0.00000017        0.00000004
      72         -1.760098        1.000000        0.00000002        0.00000016        0.00000004
      73         -1.759962        1.000000        0.00000001        0.00000009        0.00000002
      74         -1.759824        1.000000        0.00000002        0.00000012        0.00000003
      75         -1.759787        1.000000        0.00000001        0.00000006        0.00000003
      76         -1.759638        1.000000        0.00000001        0.00000005        0.00000002
      77         -1.759601        1.000000        0.00000002        0.00000020        0.00000005
      78         -1.759512        1.000000        0.00000001        0.00000009        0.00000003
      79         -1.759406        1.000000        0.00000001        0.00000007        0.00000002
      80         -1.759287        1.000000        0.00000001        0.00000008        0.00000002
      81         -1.759176        1.000000        0.00000003        0.00000015        0.00000002
      82         -1.758872        1.000000        0.00000001        0.00000007        0.00000002
      83         -1.758781        1.000000        0.00000002        0.00000012        0.00000003
      84         -1.758726        1.000000        0.00000002        0.00000010        0.00000002
      85         -1.758559        1.000000        0.00000003        0.00000016        0.00000004
      86         -1.758378        1.000000        0.00000002        0.00000013        0.00000005
      87         -1.758294        1.000000        0.00000002        0.00000012        0.00000006
      88         -1.758087        1.000000        0.00000001        0.00000007        0.00000003
      89         -1.757987        1.000000        0.00000002        0.00000011        0.00000005
      90         -1.757734        1.000000        0.00000002        0.00000012        0.00000002
      91         -1.757649        1.000000        0.00000003        0.00000022        0.00000005
      92         -1.757529        1.000000        0.00000001        0.00000006        0.00000003
      93         -1.757404        1.000000        0.00000002        0.00000011        0.00000005
      94         -1.757324        1.000000        0.00000001        0.00000008        0.00000002
      95         -1.757187        1.000000        0.00000001        0.00000006        0.00000002
      96         -1.757137        1.000000        0.00000001        0.00000004        0.00000002
      97         -1.756770        1.000000        0.00000001        0.00000008        0.00000004
      98         -1.756598        1.000000        0.00000001        0.00000006        0.00000002
      99         -1.756513        1.000000        0.00000001        0.00000009        0.00000002
     100         -1.756186        1.000000        0.00000001        0.00000004        0.00000001
     101         -1.755847        1.000000        0.00000001        0.00000003        0.00000001
     102         -1.755716        1.000000        0.00000001        0.00000010        0.00000002
     103         -1.755306        1.000000        0.00000001        0.00000006        0.00000001
     104         -1.755052        1.000000        0.00000001        0.00000004        0.00000001
     105         -1.754765        1.000000        0.00000002        0.00000020        0.00000003
     106         -1.754094        1.000000        0.00000001        0.00000003        0.00000001
     107         -1.753681        1.000000        0.00000001        0.00000003        0.00000001
     108         -1.753548        1.000000        0.00000002        0.00000013        0.00000002
     109         -1.753256        1.000000        0.00000001        0.00000006        0.00000001
     110         -1.752675        1.000000        0.00000001        0.00000005        0.00000001
     111         -1.752502        1.000000        0.00000000        0.00000004        0.00000001
     112         -1.752253        1.000000        0.00000000        0.00000003        0.00000001
     113         -1.751643        1.000000        0.00000001        0.00000005        0.00000001
     114         -1.751317        1.000000        0.00000000        0.00000003        0.00000001
     115         -1.749193        1.000000        0.00000000        0.00000001        0.00000000
     116         -1.748137        1.000000        0.00000000        0.00000001        0.00000000
     117         -1.747283        1.000000        0.00000000        0.00000001        0.00000000
     118         -1.745962        1.000000        0.00000000        0.00000001        0.00000000
     119         -1.745880        1.000000        0.00000000        0.00000000        0.00000000
     120         -1.744143        1.000000        0.00000000        0.00000000        0.00000000
     121         -1.145318        1.000000        0.00114411        0.00034047        0.00004588
     122         -1.141162        1.000000        0.00112191        0.00030427        0.00004300
     123         -1.135518        1.000000        0.02953786        0.00504716        0.00070163
     124         -1.134356        1.000000        0.01283272        0.00199238        0.00026932
     125         -1.132797        1.000000        0.00233708        0.00055833        0.00008091
     126         -1.131675        1.000000        0.00344418        0.00086790        0.00012104
     127         -1.130657        1.000000        0.00400725        0.00068255        0.00010302
     128         -1.129329        1.000000        0.02812773        0.00306016        0.00041564
     129         -1.127805        1.000000        0.05488960        0.00595361        0.00077204
     130         -1.126970        1.000000        0.02621359        0.00384945        0.00055065
     131         -1.125100        1.000000        0.02413687        0.00329889        0.00047605
     132         -1.124640        1.000000        0.01699277        0.00263059        0.00035706
     133         -1.122028        1.000000        0.02213095        0.00205148        0.00028858
     134         -1.120887        1.000000        0.02917488        0.00296735        0.00034277
     135         -1.119308        1.000000        0.03174518        0.00475347        0.00056585
     136         -1.118408        1.000000        0.02260755        0.00258881        0.00031555
     137         -1.117769        1.000000        0.01211167        0.00185979        0.00024894
     138         -1.116570        1.000000        0.04826639        0.00625106        0.00083081
     139         -1.115096        1.000000        0.01220720        0.00157883        0.00022685
     140         -1.114402        1.000000        0.01424911        0.00218632        0.00032000
     141         -1.114039        1.000000        0.03426983        0.00280086        0.00040307
     142         -1.112381        1.000000        0.03062860        0.00261295        0.00035942
     143         -1.111588        1.000000        0.03573889        0.00341236        0.00042679
     144         -1.111356        1.000000        0.03935528        0.00462979        0.00061625
     145         -1.110913        1.000000        0.02375128        0.00206880        0.00028571
     146         -1.109631        1.000000        0.03009153        0.00340099        0.00049240
     147         -1.107338        1.000000        0.02559545        0.00152655        0.00018438
     148         -1.107163        1.000000        0.01490154        0.00140899        0.00019140
     149         -1.106911        1.000000        0.01310710        0.00152810        0.00024227
     150         -1.105904        1.000000        0.01641422        0.00117640        0.00014721
     151         -1.104513        1.000000        0.03241670        0.00258491        0.00043131
     152         -1.103753        1.000000        0.02503024        0.00252251        0.00072604
     153         -1.103233        1.000000        0.02895185        0.00276128        0.00033814
     154         -1.101116        1.000000        0.04956700        0.00498381        0.00060957
     155         -1.099878        1.000000        0.04594149        0.00368456        0.00057433
     156         -1.099527        1.000000        0.04820880        0.00381503        0.00066222
     157         -1.099360        1.000000        0.04704873        0.00462712        0.00079073
     158         -1.097449        1.000000        0.01924866        0.00122925        0.00031529
     159         -1.097246        1.000000        0.04892139        0.00458586        0.00068083
     160         -1.096336        1.000000        0.00838064        0.00066975        0.00015844
     161         -1.095776        1.000000        0.01336932        0.00081675        0.00023334
     162         -1.094258        1.000000        0.08511973        0.00511311        0.00064249
     163         -1.093701        1.000000        0.02179165        0.00178479        0.00030271
     164         -1.093107        1.000000        0.07845223        0.00386435        0.00042498
     165         -1.091600        1.000000        0.02871923        0.00138303        0.00020692
     166         -1.090890        1.000000        0.01454706        0.00111057        0.00028690
     167         -1.090283        1.000000        0.00551303        0.00043494        0.00008266
     168         -1.089378        1.000000        0.05083678        0.00307486        0.00040056
     169         -1.088506        1.000000        0.07213899        0.00401783        0.00053066
     170         -1.086931        1.000000        0.03624066        0.00172392        0.00032316
     171         -1.086367        1.000000        0.02929668        0.00203083        0.00028631
     172         -1.085327        1.000000        0.04348357        0.00182922        0.00026761
     173         -1.084766        1.000000        0.01695713        0.00072575        0.00011391
     174         -1.083961        1.000000        0.00867301        0.00038192        0.00006030
     175         -1.082920        1.000000        0.02424502        0.00122520        0.00018274
     176         -1.081700        1.000000        0.06076505        0.00209201        0.00025407
     177         -1.081031        1.000000        0.03646477        0.00159563        0.00026680
     178         -1.080558        1.000000        0.03778669        0.00186693        0.00032506
     179         -1.080415        1.000000        0.03474170        0.00200442        0.00033186
     180         -1.080047        1.000000        0.03470950        0.00213523        0.00031339
     181         -1.077309        1.000000        0.11372477        0.00364381        0.00040086
     182         -1.076601        1.000000        0.02977911        0.00124208        0.00016186
     183         -1.076342        1.000000        0.02428261        0.00122535        0.00018806
     184         -1.076154        1.000000        0.07867700        0.00306395        0.00039734
     185         -1.075469        1.000000        0.06118779        0.00254696        0.00038443
     186         -1.074904        1.000000        0.02222782        0.00098028        0.00022667
     187         -1.074160        1.000000        0.02056027        0.00117598        0.00017692
     188         -1.073364        1.000000        0.02663487        0.00111145        0.00025175
     189         -1.071841        1.000000        0.03007338        0.00142290        0.00030314
     190         -1.071436        1.000000        0.02403398        0.00103283        0.00015710
     191         -1.070358        1.000000        0.05533114        0.00223229        0.00034026
     192         -1.070160        1.000000        0.02902456        0.00235992        0.00045288
     193         -1.069551        1.000000        0.02188400        0.00140873        0.00050628
     194         -1.069042        1.000000        0.02895442        0.00176861        0.00026535
     195         -1.068018        1.000000        0.04249974        0.00224199        0.00034423
     196         -1.067683        1.000000        0.05630380        0.00468626        0.00061625
     197         -1.067094        1.000000        0.02791432        0.00191503        0.00023666
     198         -1.066200        1.000000        0.01932078        0.00099519        0.00019004
     199         -1.065105        1.000000        0.04931105        0.00255808        0.00051987
     200         -1.064600        1.000000        0.05446709        0.00286874        0.00070939
     201         -1.063825        1.000000        0.04710959        0.00225355        0.00045813
     202         -1.063672        1.000000        0.05881574        0.00236231        0.00041288
     203         -1.062915        1.000000        0.08112134        0.00241621        0.00051393
     204         -1.062259        1.000000        0.01998569        0.00066393        0.00011760
     205         -1.061986        1.000000        0.06013923        0.00214062        0.00048190
     206         -1.060822        1.000000        0.02663733        0.00095573        0.00025383
     207         -1.060230        1.000000        0.16187968        0.00379962        0.00066462
     208         -1.059971        1.000000        0.12676081        0.00350162        0.00050471
     209         -1.059399        1.000000        0.03122521        0.00160183        0.00024744
     210         -1.058798        1.000000        0.01457143        0.00061925        0.00025884
     211         -1.058498        1.000000        0.03193900        0.00124603        0.00032275
     212         -1.057049        1.000000        0.07926577        0.00338347        0.00051073
     213         -1.056896        1.000000        0.09902208        0.00405045        0.00066512
     214         -1.056403        1.000000        0.09695762        0.00276181        0.00023940
     215         -1.056079        1.000000        0.01388286        0.00054166        0.00006422
     216         -1.055624        1.000000        0.03788442        0.00132374        0.00025801
     217         -1.055288        1.000000        0.01147991        0.00049942        0.00013034
     218         -1.054828        1.000000        0.02158809        0.00102013        0.00034193
     219         -1.054413        1.000000        0.04472881        0.00168869        0.00041098
     220         -1.053990        1.000000        0.03884382        0.00105927        0.00015756
     221         -1.053598        1.000000        0.02796659        0.00076700        0.00009925
     222         -1.053387        1.000000        0.13056913        0.00325780        0.00025402
     223         -1.052953        1.000000        0.00808758        0.00043943        0.00019448
     224         -1.052779        1.000000        0.02750559        0.00108193        0.00025759
     225         -1.052376        1.000000        0.05648414        0.00172135        0.00027698
     226         -1.052297        1.000000        0.01841666        0.00066566        0.00011800
     227         -1.051819        1.000000        0.02116554        0.00091830        0.00023611
     228         -1.051536        1.000000        0.09096789        0.00228741        0.00038425
     229         -1.051232        1.000000        0.02011872        0.00082511        0.00018227
     230         -1.050581        1.000000        0.02336546        0.00064937        0.00015826
     231         -1.050140        1.000000        0.07231058        0.00176807        0.00031387
     232         -1.049834        1.000000        0.00447202        0.00039695        0.00022257
     233         -1.049588        1.000000        0.00315498        0.00009197        0.00002030
     234         -1.049506        1.000000        0.00089983        0.00005086        0.00001402
     235         -1.048565        1.000000        0.03443628        0.00091737        0.00034615
     236         -1.048103        1.000000        0.03710179        0.00096685        0.00025500
     237         -1.048023        1.000000        0.03517658        0.00127800        0.00023211
     238         -1.047651        1.000000        0.00896389        0.00053541        0.00025506
     239         -1.047305        1.000000        0.01306916        0.00057431        0.00014919
     240         -1.046707        1.000000        0.04056214        0.00109527        0.00023975
     241         -1.046592        1.000000        0.04646594        0.00133796        0.00036299
     242         -1.046281        1.000000        0.00889106        0.00023827        0.00011488
     243         -1.045974        1.000000        0.05366179        0.00253148        0.00057845
     244         -1.045866        1.000000        0.01352993        0.00043889        0.00010579
     245         -1.045771        1.000000        0.04040692        0.00075131        0.00008821
     246         -1.045301        1.000000        0.01855993        0.00112525        0.00035243
     247         -1.045020        1.000000        0.07267724        0.00180836        0.00030415
     248         -1.043956        1.000000        0.05899498        0.00167063        0.00025837
     249         -1.043818        1.000000        0.04834647        0.00197209        0.00040935
     250         -1.043244        1.000000        0.02396634        0.00110497        0.00039444
     251         -1.043119        1.000000        0.00612187        0.00016185        0.00002597
     252         -1.042993        1.000000        0.02082960        0.00065933        0.00011404
     253         -1.042515        1.000000        0.16230706        0.00469494        0.00041833
     254         -1.041302        1.000000        0.01038583        0.00022971        0.00008326
     255         -1.041116        1.000000        0.03092641        0.00069547        0.00023545
     256         -1.040594        1.000000        0.00469324        0.00021053        0.00008273
     257         -1.040094        1.000000        0.01085982        0.00047100        0.00029867
     258         -1.039599        1.000000        0.01119783        0.00052837        0.00034333
     259         -1.039408        1.000000        0.03533313        0.00064423        0.00022760
     260         -1.038970        1.000000        0.01007047        0.00025018        0.00010039
     261         -1.038561        1.000000        0.00164713        0.00005872        0.00003844
     262         -1.038022        1.000000        0.00065786        0.00002107        0.00000754
     263         -1.037841        1.000000        0.02441632        0.00237394        0.00088596
     264         -1.036991        1.000000        0.00384278        0.00018421        0.00016996
     265         -1.036854        1.000000        0.01398130        0.00069848        0.00050372
     266         -1.035910        1.000000        0.00030135        0.00001932        0.00001277
     267         -1.035115        1.000000        0.01727439        0.00086243        0.00038493
     268         -1.034275        1.000000        0.00613448        0.00023203        0.00005231
     269         -1.033697        1.000000        0.00392391        0.00014740        0.00004012
     270         -1.033444        1.000000        0.13999977        0.00433769        0.00037797
     271         -1.033385        1.000000        0.13433181        0.00405362        0.00027472
     272         -1.033262        1.000000        0.01204667        0.00036339        0.00003822
     273         -1.032346        1.000000        0.26135525        0.00732115        0.00054332
     274         -1.031626        1.000000        0.00056718        0.00002136        0.00000504
     275         -1.030746        1.000000        0.00002888        0.00000138        0.00000052
     276         -1.029780        1.000000        0.00017838        0.00001471        0.00000789
     277         -1.028980        1.000000        0.00020486        0.00000843        0.00000292
     278         -1.027492        1.000000        0.01727640        0.00073132        0.00054633
     279         -1.025795        1.000000        0.03411651        0.00212101        0.00087125
     280         -1.023990        1.000000        0.00804746        0.00061354        0.00053779
     281         -1.022755        1.000000        0.00007505        0.00000445        0.00000271
     282         -1.019871        1.000000        0.00003868        0.00000068        0.00000011
     283         -1.017737        1.000000        0.43289082        0.00662374        0.00033267
     284         -1.012409        1.000000        0.00009110        0.00001032        0.00000401
     285         -1.010522        1.000000        0.00000163        0.00000005        0.00000001
     286         -0.880961        1.000000        0.00000505        0.00000223        0.00000190
     287         -0.861761        1.000000        0.00000251        0.00000277        0.00000121
     288         -0.860652        1.000000        0.00000147        0.00000369        0.00000199
     289         -0.854811        1.000000        0.00000137        0.00000170        0.00000113
     290         -0.853189        1.000000        0.00000107        0.00000279        0.00000144
     291         -0.838407        1.000000        0.00000105        0.00000305        0.00000109
     292         -0.837131        1.000000        0.00000075        0.00000154        0.00000071
     293         -0.835422        1.000000        0.00000158        0.00000351        0.00000130
     294         -0.832873        1.000000        0.00000070        0.00000238        0.00000132
     295         -0.813092        1.000000        0.00000147        0.00000378        0.00000081
     296         -0.811309        1.000000        0.00000126        0.00000369        0.00000115
     297         -0.805633        1.000000        0.00000551        0.00000198        0.00000185
     298         -0.800994        1.000000        0.00000229        0.00000130        0.00000098
     299         -0.798544        1.000000        0.00000176        0.00000343        0.00000130
     300         -0.797176        1.000000        0.00000134        0.00000461        0.00000104
     301         -0.796065        1.000000        0.00000060        0.00000188        0.00000064
     302         -0.795247        1.000000        0.00000113        0.00000135        0.00000109
     303         -0.794465        1.000000        0.00000092        0.00000377        0.00000091
     304         -0.792558        1.000000        0.00000050        0.00000097        0.00000041
     305         -0.791532        1.000000        0.00000090        0.00000268        0.00000104
     306         -0.790931        1.000000        0.00000109        0.00000412        0.00000099
     307         -0.790366        1.000000        0.00000048        0.00000117        0.00000054