# Projected DOS for list 96 of 1 atoms, at iteration step i = 0, E(Fermi) =    -0.237583 a.u.
#     MO Eigenvalue [a.u.]      Occupation                 s                 p                 d
       1         -3.115895        1.000000        0.00000000        0.00000000        0.00000000
       2         -3.112717        1.000000        0.00000000        0.00000000        0.00000000
       3         -3.112103        1.000000        0.00000000        0.00000000        0.00000000
       4         -3.111180        1.000000        0.00000000        0.00000000        0.00000000
       5         -3.110810        1.000000        0.00000000        0.00000000        0.00000000
       6         -3.110575        1.000000        0.00000000        0.00000000        0.00000000
       7         -3.110067        1.000000        0.00000000        0.00000000        0.00000000
       8         -3.109817        1.000000        0.00000000        0.00000000        0.00000000
       9         -3.109660        1.000000        0.00000000        0.00000000        0.00000000
      10         -3.108831        1.000000        0.00000000        0.00000000        0.00000000
      11         -3.108678        1.000000        0.00000000        0.00000000        0.00000000
      12         -3.108578        1.000000        0.00000000        0.00000000        0.00000000
      13         -3.108350        1.000000        0.00000000        0.00000000        0.00000000
      14         -3.108163        1.000000        0.00000000        0.00000000        0.00000000
      15         -3.107948        1.000000        0.00000000        0.00000000        0.00000000
      16         -3.107865        1.000000        0.00000000        0.00000000        0.00000000
      17         -3.107703        1.000000        0.00000000        0.00000000        0.00000000
      18         -3.107683        1.000000        0.00000000        0.00000000        0.00000000
      19         -3.107641        1.000000        0.00000000        0.00000000        0.00000000
      20         -3.107604        1.000000        0.00000000        0.00000000        0.00000000
      21         -3.107402        1.000000        0.00000000        0.00000000        0.00000000
      22         -3.107115        1.000000        0.00000000        0.00000000        0.00000000
      23         -3.107013        1.000000        0.00000000        0.00000000        0.00000000
      24         -3.106750        1.000000        0.00000000        0.00000000        0.00000000
      25         -3.106619        1.000000        0.00000000        0.00000000        0.00000000
      26         -3.106567        1.000000        0.00000000        0.00000000        0.00000000
      27         -3.106546        1.000000        0.00000000        0.00000000        0.00000000
      28         -3.106258        1.000000        0.00000000        0.00000000        0.00000000
      29         -3.106103        1.000000        0.00000000        0.00000000        0.00000000
      30         -3.104674        1.000000        0.00000000        0.00000000        0.00000000
      31         -1.775522        1.000000        0.00000000        0.00000000        0.00000000
      32         -1.773964        1.000000        0.00000000        0.00000000        0.00000000
      33         -1.773454        1.000000        0.00000000        0.00000000        0.00000000
      34         -1.773008        1.000000        0.00000000        0.00000000        0.00000000
      35         -1.772581        1.000000        0.00000000        0.00000000        0.00000000
      36         -1.772213        1.000000        0.00000000        0.00000000        0.00000000
      37         -1.771852        1.000000        0.00000000        0.00000000        0.00000000
      38         -1.771444        1.000000        0.00000000        0.00000000        0.00000000
      39         -1.771233        1.000000        0.00000000        0.00000000        0.00000000
      40         -1.770977        1.000000        0.00000000        0.00000000        0.00000000
      41         -1.770760        1.000000        0.00000000        0.00000000        0.00000000
      42         -1.770111        1.000000        0.00000000        0.00000000        0.00000000
      43         -1.770034        1.000000        0.00000000        0.00000000        0.00000000
      44         -1.769495        1.000000        0.00000000        0.00000000        0.00000000
      45         -1.769421        1.000000        0.00000000        0.00000000        0.00000000
      46         -1.769063        1.000000        0.00000000        0.00000000        0.00000000
      47         -1.768532        1.000000        0.00000000        0.00000000        0.00000000
      48         -1.768412        1.000000        0.00000000        0.00000000        0.00000000
      49         -1.767811        1.000000        0.00000000        0.00000000        0.00000000
      50         -1.767614        1.000000        0.00000000        0.00000000        0.00000000
      51         -1.767477        1.000000        0.00000000        0.00000000        0.00000000
      52         -1.765531        1.000000        0.00000000        0.00000000        0.00000000
      53         -1.765088        1.000000        0.00000000        0.00000000        0.00000000
      54         -1.764557        1.000000        0.00000000        0.00000000        0.00000000
      55         -1.763772        1.000000        0.00000000        0.00000000        0.00000000
      56         -1.763328        1.000000        0.00000000        0.00000000        0.00000000
      57         -1.762925        1.000000        0.00000000        0.00000000        0.00000000
      58         -1.762506        1.000000        0.00000000        0.00000000        0.00000000
      59         -1.762119        1.000000        0.00000000        0.00000000        0.00000000
      60         -1.762053        1.000000        0.00000000        0.00000000        0.00000000
      61         -1.761895        1.000000        0.00000000        0.00000000        0.00000000
      62         -1.761602        1.000000        0.00000000        0.00000000        0.00000000
      63         -1.761509        1.000000        0.00000000        0.00000000        0.00000000
      64         -1.761377        1.000000        0.00000000        0.00000000        0.00000000
      65         -1.761171        1.000000        0.00000000        0.00000000        0.00000000
      66         -1.760998        1.000000        0.00000000        0.00000000        0.00000000
      67         -1.760877        1.000000        0.00000000        0.00000000        0.00000000
      68         -1.760806        1.000000        0.00000000        0.00000000        0.00000000
      69         -1.760684        1.000000        0.00000000        0.00000000        0.00000000
      70         -1.760645        1.000000        0.00000000        0.00000000        0.00000000
      71         -1.760442        1.000000        0.00000000        0.00000000        0.00000000
      72         -1.760098        1.000000        0.00000000        0.00000000        0.00000000
      73         -1.759962        1.000000        0.00000000        0.00000000        0.00000000
      74         -1.759824        1.000000        0.00000000        0.00000000        0.00000000
      75         -1.759787        1.000000        0.00000000        0.00000000        0.00000000
      76         -1.759638        1.000000        0.00000000        0.00000000        0.00000000
      77         -1.759601        1.000000        0.00000000        0.00000000        0.00000000
      78         -1.759512        1.000000        0.00000000        0.00000000        0.00000000
      79         -1.759406        1.000000        0.00000000        0.00000000        0.00000000
      80         -1.759287        1.000000        0.00000000        0.00000000        0.00000000
      81         -1.759176        1.000000        0.00000000        0.00000000        0.00000000
      82         -1.758872        1.000000        0.00000000        0.00000000        0.00000000
      83         -1.758781        1.000000        0.00000000        0.00000000        0.00000000
      84         -1.758726        1.000000        0.00000000        0.00000000        0.00000000
      85         -1.758559        1.000000        0.00000000        0.00000000        0.00000000
      86         -1.758378        1.000000        0.00000000        0.00000000        0.00000000
      87         -1.758294        1.000000        0.00000000        0.00000000        0.00000000
      88         -1.758087        1.000000        0.00000000        0.00000000        0.00000000
      89         -1.757987        1.000000        0.00000000        0.00000000        0.00000000
      90         -1.757734        1.000000        0.00000000        0.00000000        0.00000000
      91         -1.757649        1.000000        0.00000000        0.00000000        0.00000000
      92         -1.757529        1.000000        0.00000000        0.00000000        0.00000000
      93         -1.757404        1.000000        0.00000000        0.00000000        0.00000000
      94         -1.757324        1.000000        0.00000000        0.00000000        0.00000000
      95         -1.757187        1.000000        0.00000000        0.00000000        0.00000000
      96         -1.757137        1.000000        0.00000000        0.00000000        0.00000000
      97         -1.756770        1.000000        0.00000000        0.00000000        0.00000000
      98         -1.756598        1.000000        0.00000000        0.00000000        0.00000000
      99         -1.756513        1.000000        0.00000000        0.00000000        0.00000000
     100         -1.756186        1.000000        0.00000000        0.00000000        0.00000000
     101         -1.755847        1.000000        0.00000000        0.00000000        0.00000000
     102         -1.755716        1.000000        0.00000000        0.00000000        0.00000000
     103         -1.755306        1.000000        0.00000000        0.00000000        0.00000000
     104         -1.755052        1.000000        0.00000000        0.00000000        0.00000000
     105         -1.754765        1.000000        0.00000000        0.00000000        0.00000000
     106         -1.754094        1.000000        0.00000000        0.00000000        0.00000000
     107         -1.753681        1.000000        0.00000000        0.00000000        0.00000000
     108         -1.753548        1.000000        0.00000000        0.00000000        0.00000000
     109         -1.753256        1.000000        0.00000000        0.00000000        0.00000000
     110         -1.752675        1.000000        0.00000000        0.00000000        0.00000000
     111         -1.752502        1.000000        0.00000000        0.00000000        0.00000000
     112         -1.752253        1.000000        0.00000000        0.00000000        0.00000000
     113         -1.751643        1.000000        0.00000000        0.00000000        0.00000000
     114         -1.751317        1.000000        0.00000000        0.00000000        0.00000000
     115         -1.749193        1.000000        0.00000000        0.00000000        0.00000000
     116         -1.748137        1.000000        0.00000000        0.00000000        0.00000000
     117         -1.747283        1.000000        0.00000000        0.00000000        0.00000000
     118         -1.745962        1.000000        0.00000000        0.00000000        0.00000000
     119         -1.745880        1.000000        0.00000000        0.00000000        0.00000000
     120         -1.744143        1.000000        0.00000000        0.00000000        0.00000000
     121         -1.145318        1.000000        0.00039997        0.00017427        0.00003097
     122         -1.141162        1.000000        0.00000334        0.00004720        0.00000503
     123         -1.135518        1.000000        0.00001599        0.00008940        0.00001232
     124         -1.134356        1.000000        0.00054385        0.00005662        0.00000909
     125         -1.132797        1.000000        0.00097432        0.00009531        0.00001389
     126         -1.131675        1.000000        0.00004033        0.00041875        0.00011811
     127         -1.130657        1.000000        0.00012927        0.00026689        0.00005044
     128         -1.129329        1.000000        0.00107630        0.00092428        0.00019197
     129         -1.127805        1.000000        0.00013995        0.00035891        0.00010292
     130         -1.126970        1.000000        0.00014156        0.00016141        0.00003006
     131         -1.125100        1.000000        0.00015169        0.00009871        0.00001675
     132         -1.124640        1.000000        0.00209909        0.00041545        0.00013292
     133         -1.122028        1.000000        0.00240532        0.00059549        0.00009034
     134         -1.120887        1.000000        0.00973855        0.00295116        0.00050419
     135         -1.119308        1.000000        0.00056449        0.00114350        0.00039262
     136         -1.118408        1.000000        0.00867495        0.00608771        0.00126767
     137         -1.117769        1.000000        0.00139612        0.00150782        0.00033978
     138         -1.116570        1.000000        0.00223395        0.00020565        0.00005021
     139         -1.115096        1.000000        0.00100110        0.00065021        0.00024902
     140         -1.114402        1.000000        0.00049634        0.00038823        0.00013942
     141         -1.114039        1.000000        0.00005507        0.00042608        0.00013274
     142         -1.112381        1.000000        0.00477517        0.00107037        0.00033827
     143         -1.111588        1.000000        0.00049840        0.00031199        0.00010916
     144         -1.111356        1.000000        0.00606871        0.00218224        0.00096607
     145         -1.110913        1.000000        0.00717426        0.00079094        0.00042653
     146         -1.109631        1.000000        0.00137164        0.00565430        0.00199026
     147         -1.107338        1.000000        0.00444436        0.00136751        0.00053959
     148         -1.107163        1.000000        0.00113219        0.00123445        0.00051283
     149         -1.106911        1.000000        0.00807398        0.00260252        0.00112480
     150         -1.105904        1.000000        0.02094916        0.00145317        0.00084593
     151         -1.104513        1.000000        0.00003811        0.00237984        0.00072603
     152         -1.103753        1.000000        0.00100779        0.00092516        0.00028723
     153         -1.103233        1.000000        0.00003610        0.00011483        0.00003748
     154         -1.101116        1.000000        0.00144870        0.00075073        0.00024337
     155         -1.099878        1.000000        0.00267977        0.00046001        0.00016741
     156         -1.099527        1.000000        0.00124392        0.00077951        0.00030390
     157         -1.099360        1.000000        0.00273875        0.00038327        0.00008887
     158         -1.097449        1.000000        0.00050226        0.00028181        0.00011424
     159         -1.097246        1.000000        0.00284160        0.00120812        0.00038993
     160         -1.096336        1.000000        0.00075178        0.00299845        0.00088592
     161         -1.095776        1.000000        0.00183298        0.00205421        0.00072832
     162         -1.094258        1.000000        0.00267753        0.00129555        0.00050619
     163         -1.093701        1.000000        0.00018048        0.00049507        0.00017978
     164         -1.093107        1.000000        0.00022252        0.00179034        0.00065884
     165         -1.091600        1.000000        0.00047411        0.00239197        0.00072944
     166         -1.090890        1.000000        0.00037340        0.00491500        0.00154974
     167         -1.090283        1.000000        0.00103356        0.00099851        0.00031773
     168         -1.089378        1.000000        0.00175006        0.00114509        0.00030303
     169         -1.088506        1.000000        0.00020462        0.00225527        0.00068511
     170         -1.086931        1.000000        0.00003012        0.00352291        0.00097407
     171         -1.086367        1.000000        0.00154287        0.00008345        0.00007037
     172         -1.085327        1.000000        0.00326636        0.00028084        0.00028856
     173         -1.084766        1.000000        0.00186096        0.01191786        0.00392724
     174         -1.083961        1.000000        0.00134944        0.00142433        0.00068557
     175         -1.082920        1.000000        0.00001947        0.00770235        0.00234462
     176         -1.081700        1.000000        0.00067771        0.00596007        0.00194362
     177         -1.081031        1.000000        0.00122190        0.01255190        0.00450215
     178         -1.080558        1.000000        0.00006538        0.00067113        0.00024917
     179         -1.080415        1.000000        0.00041826        0.00905242        0.00342561
     180         -1.080047        1.000000        0.00001192        0.00096162        0.00041019
     181         -1.077309        1.000000        0.00000392        0.00061757        0.00027989
     182         -1.076601        1.000000        0.00032098        0.00110174        0.00045058
     183         -1.076342        1.000000        0.00016968        0.00749320        0.00275661
     184         -1.076154        1.000000        0.00002758        0.00150365        0.00048531
     185         -1.075469        1.000000        0.00000921        0.00497297        0.00157630
     186         -1.074904        1.000000        0.00046115        0.00497907        0.00148464
     187         -1.074160        1.000000        0.00003028        0.00453246        0.00176186
     188         -1.073364        1.000000        0.00005530        0.00196899        0.00073218
     189         -1.071841        1.000000        0.00012931        0.00345613        0.00135688
     190         -1.071436        1.000000        0.00474938        0.00181078        0.00054108
     191         -1.070358        1.000000        0.00012932        0.00134588        0.00050429
     192         -1.070160        1.000000        0.00053077        0.00073802        0.00037173
     193         -1.069551        1.000000        0.00002118        0.00149639        0.00052531
     194         -1.069042        1.000000        0.00013858        0.00346522        0.00121277
     195         -1.068018        1.000000        0.00042482        0.00121578        0.00034137
     196         -1.067683        1.000000        0.00022571        0.00130192        0.00039881
     197         -1.067094        1.000000        0.00041119        0.00248766        0.00098954
     198         -1.066200        1.000000        0.00012432        0.00327951        0.00119422
     199         -1.065105        1.000000        0.00024248        0.00103233        0.00044317
     200         -1.064600        1.000000        0.00000175        0.00035877        0.00015046
     201         -1.063825        1.000000        0.00146023        0.00690271        0.00268895
     202         -1.063672        1.000000        0.00090005        0.00061731        0.00026794
     203         -1.062915        1.000000        0.00018159        0.00034827        0.00012133
     204         -1.062259        1.000000        0.00246914        0.00855924        0.00283645
     205         -1.061986        1.000000        0.00001311        0.00168110        0.00063451
     206         -1.060822        1.000000        0.00007288        0.00075054        0.00027257
     207         -1.060230        1.000000        0.00005056        0.00001146        0.00000546
     208         -1.059971        1.000000        0.00027966        0.00032113        0.00011310
     209         -1.059399        1.000000        0.00002361        0.00035565        0.00015794
     210         -1.058798        1.000000        0.00028338        0.00042540        0.00014524
     211         -1.058498        1.000000        0.00001320        0.00265683        0.00113912
     212         -1.057049        1.000000        0.00019544        0.00020961        0.00007300
     213         -1.056896        1.000000        0.00000545        0.00046821        0.00022938
     214         -1.056403        1.000000        0.00002869        0.00013311        0.00007372
     215         -1.056079        1.000000        0.00001793        0.00194408        0.00100349
     216         -1.055624        1.000000        0.00019825        0.00115044        0.00043980
     217         -1.055288        1.000000        0.00000346        0.00035581        0.00011833
     218         -1.054828        1.000000        0.00000705        0.00174760        0.00062726
     219         -1.054413        1.000000        0.00008953        0.00177917        0.00063393
     220         -1.053990        1.000000        0.00003134        0.00183369        0.00068562
     221         -1.053598        1.000000        0.00021600        0.00174955        0.00073522
     222         -1.053387        1.000000        0.00000134        0.00046402        0.00016329
     223         -1.052953        1.000000        0.00000443        0.00024255        0.00015110
     224         -1.052779        1.000000        0.00002846        0.00115598        0.00041262
     225         -1.052376        1.000000        0.00007108        0.00043140        0.00016213
     226         -1.052297        1.000000        0.00003658        0.00003522        0.00001121
     227         -1.051819        1.000000        0.00024585        0.00124520        0.00049072
     228         -1.051536        1.000000        0.00006487        0.00058769        0.00025125
     229         -1.051232        1.000000        0.00039655        0.00358084        0.00139733
     230         -1.050581        1.000000        0.00002592        0.00245343        0.00094875
     231         -1.050140        1.000000        0.00012593        0.00070534        0.00023884
     232         -1.049834        1.000000        0.00001067        0.00106012        0.00038541
     233         -1.049588        1.000000        0.00020547        0.01323477        0.00596257
     234         -1.049506        1.000000        0.00000303        0.00040359        0.00023439
     235         -1.048565        1.000000        0.00021364        0.00466344        0.00178205
     236         -1.048103        1.000000        0.00005172        0.00172171        0.00074157
     237         -1.048023        1.000000        0.00031205        0.00484118        0.00191188
     238         -1.047651        1.000000        0.00001046        0.00066095        0.00030279
     239         -1.047305        1.000000        0.00083947        0.01836718        0.00729207
     240         -1.046707        1.000000        0.00006651        0.00184121        0.00073375
     241         -1.046592        1.000000        0.00000771        0.00019506        0.00012276
     242         -1.046281        1.000000        0.00047270        0.01128547        0.00482304
     243         -1.045974        1.000000        0.00001847        0.00052837        0.00022104
     244         -1.045866        1.000000        0.00006423        0.00183461        0.00076405
     245         -1.045771        1.000000        0.00007598        0.00310714        0.00119799
     246         -1.045301        1.000000        0.00007766        0.00449982        0.00174568
     247         -1.045020        1.000000        0.00000073        0.00026316        0.00010690
     248         -1.043956        1.000000        0.00001012        0.00325016        0.00116997
     249         -1.043818        1.000000        0.00001728        0.00124087        0.00060741
     250         -1.043244        1.000000        0.00000963        0.00164690        0.00078908
     251         -1.043119        1.000000        0.00000058        0.00057013        0.00028119
     252         -1.042993        1.000000        0.00000296        0.00237738        0.00108970
     253         -1.042515        1.000000        0.00000238        0.00023705        0.00009599
     254         -1.041302        1.000000        0.00004418        0.07018469        0.03409607
     255         -1.041116        1.000000        0.00004699        0.01326244        0.00525946
     256         -1.040594        1.000000        0.00000091        0.00300456        0.00146644
     257         -1.040094        1.000000        0.00000587        0.00205521        0.00106944
     258         -1.039599        1.000000        0.00000086        0.00017557        0.00008842
     259         -1.039408        1.000000        0.00000454        0.00049629        0.00022594
     260         -1.038970        1.000000        0.00000665        0.00328143        0.00175059
     261         -1.038561        1.000000        0.00001016        0.00537422        0.00287327
     262         -1.038022        1.000000        0.00000791        0.00102350        0.00041665
     263         -1.037841        1.000000        0.00000000        0.00001289        0.00000588
     264         -1.036991        1.000000        0.00000501        0.00074086        0.00031459
     265         -1.036854        1.000000        0.00003025        0.00225730        0.00104854
     266         -1.035910        1.000000        0.00066376        0.04618492        0.02130064
     267         -1.035115        1.000000        0.00000194        0.00014641        0.00008542
     268         -1.034275        1.000000        0.00000080        0.00080793        0.00041598
     269         -1.033697        1.000000        0.00007472        0.00111902        0.00042313
     270         -1.033444        1.000000        0.00006767        0.00239401        0.00097731
     271         -1.033385        1.000000        0.00005839        0.00206423        0.00083668
     272         -1.033262        1.000000        0.00006999        0.00226176        0.00084960
     273         -1.032346        1.000000        0.00000018        0.00008340        0.00003791
     274         -1.031626        1.000000        0.00000160        0.00012054        0.00004817
     275         -1.030746        1.000000        0.00000982        0.01052476        0.00521592
     276         -1.029780        1.000000        0.00000012        0.00019163        0.00009131
     277         -1.028980        1.000000        0.00000141        0.00005966        0.00003232
     278         -1.027492        1.000000        0.00000015        0.00005379        0.00002623
     279         -1.025795        1.000000        0.00000012        0.00000532        0.00000217
     280         -1.023990        1.000000        0.00000062        0.00003048        0.00001301
     281         -1.022755        1.000000        0.00020623        0.00691026        0.00312105
     282         -1.019871        1.000000        0.00000496        0.00006428        0.00002998
     283         -1.017737        1.000000        0.00000012        0.00000170        0.00000102
     284         -1.012409        1.000000        0.00000004        0.00000021        0.00000008
     285         -1.010522        1.000000        0.00002364        0.00009582        0.00009141
     286         -0.880961        1.000000        0.00000000        0.00000000        0.00000000
     287         -0.861761        1.000000        0.00000000        0.00000000        0.00000000
     288         -0.860652        1.000000        0.00000000        0.00000000        0.00000000
     289         -0.854811        1.000000        0.00000000        0.00000000        0.00000000
     290         -0.853189        1.000000        0.00000000        0.00000000        0.00000000
     291         -0.838407        1.000000        0.00000000        0.00000000        0.00000000
     292         -0.837131        1.000000        0.00000000        0.00000000        0.00000000
     293         -0.835422        1.000000        0.00000000        0.00000000        0.00000000
     294         -0.832873        1.000000        0.00000000        0.00000000        0.00000000
     295         -0.813092        1.000000        0.00000000        0.00000000        0.00000000
     296         -0.811309        1.000000        0.00000000        0.00000000        0.00000000
     297         -0.805633        1.000000        0.00000000        0.00000000        0.00000000
     298         -0.800994        1.000000        0.00000000        0.00000000        0.00000000
     299         -0.798544        1.000000        0.00000000        0.00000000        0.00000000
     300         -0.797176        1.000000        0.00000000        0.00000000        0.00000000
     301         -0.796065        1.000000        0.00000000        0.00000000        0.00000000
     302         -0.795247        1.000000        0.00000000        0.00000000        0.00000000
     303         -0.794465        1.000000        0.00000000        0.00000000        0.00000000
     304         -0.792558        1.000000        0.00000000        0.00000000        0.00000000
     305         -0.791532        1.000000        0.00000000        0.00000000        0.00000000
     306         -0.790931        1.000000        0.00000000        0.00000000        0.00000000
     307         -0.790366        1.000000        0.00000000        0.00000000        0.00000000