# Projected DOS for list 142 of 1 atoms, at iteration step i = 0, E(Fermi) =    -0.237583 a.u.
#     MO Eigenvalue [a.u.]      Occupation                 s                 p                 d
       1         -3.115895        1.000000        0.00000000        0.00000000        0.00000000
       2         -3.112717        1.000000        0.00000000        0.00000000        0.00000000
       3         -3.112103        1.000000        0.00000000        0.00000002        0.00000000
       4         -3.111180        1.000000        0.00000000        0.00000000        0.00000000
       5         -3.110810        1.000000        0.00000000        0.00000001        0.00000000
       6         -3.110575        1.000000        0.00000000        0.00000000        0.00000000
       7         -3.110067        1.000000        0.00000001        0.00000000        0.00000000
       8         -3.109817        1.000000        0.00000000        0.00000000        0.00000000
       9         -3.109660        1.000000        0.00000000        0.00000000        0.00000000
      10         -3.108831        1.000000        0.00000001        0.00000001        0.00000000
      11         -3.108678        1.000000        0.00000000        0.00000000        0.00000000
      12         -3.108578        1.000000        0.00000000        0.00000000        0.00000000
      13         -3.108350        1.000000        0.00000000        0.00000001        0.00000000
      14         -3.108163        1.000000        0.00000000        0.00000000        0.00000000
      15         -3.107948        1.000000        0.00000000        0.00000000        0.00000000
      16         -3.107865        1.000000        0.00000000        0.00000000        0.00000000
      17         -3.107703        1.000000        0.00000000        0.00000000        0.00000000
      18         -3.107683        1.000000        0.00000000        0.00000000        0.00000000
      19         -3.107641        1.000000        0.00000000        0.00000000        0.00000000
      20         -3.107604        1.000000        0.00000000        0.00000000        0.00000000
      21         -3.107402        1.000000        0.00000000        0.00000000        0.00000000
      22         -3.107115        1.000000        0.00000000        0.00000000        0.00000000
      23         -3.107013        1.000000        0.00000000        0.00000000        0.00000000
      24         -3.106750        1.000000        0.00000000        0.00000000        0.00000000
      25         -3.106619        1.000000        0.00000000        0.00000000        0.00000000
      26         -3.106567        1.000000        0.00000000        0.00000000        0.00000000
      27         -3.106546        1.000000        0.00000000        0.00000000        0.00000000
      28         -3.106258        1.000000        0.00000000        0.00000000        0.00000000
      29         -3.106103        1.000000        0.00000000        0.00000000        0.00000000
      30         -3.104674        1.000000        0.00000000        0.00000000        0.00000000
      31         -1.775522        1.000000        0.00000000        0.00000000        0.00000000
      32         -1.773964        1.000000        0.00000000        0.00000000        0.00000000
      33         -1.773454        1.000000        0.00000000        0.00000000        0.00000000
      34         -1.773008        1.000000        0.00000000        0.00000000        0.00000000
      35         -1.772581        1.000000        0.00000000        0.00000000        0.00000000
      36         -1.772213        1.000000        0.00000000        0.00000000        0.00000000
      37         -1.771852        1.000000        0.00000000        0.00000000        0.00000000
      38         -1.771444        1.000000        0.00000000        0.00000000        0.00000000
      39         -1.771233        1.000000        0.00000000        0.00000000        0.00000000
      40         -1.770977        1.000000        0.00000000        0.00000000        0.00000000
      41         -1.770760        1.000000        0.00000000        0.00000000        0.00000000
      42         -1.770111        1.000000        0.00000000        0.00000000        0.00000000
      43         -1.770034        1.000000        0.00000000        0.00000000        0.00000000
      44         -1.769495        1.000000        0.00000000        0.00000000        0.00000000
      45         -1.769421        1.000000        0.00000000        0.00000000        0.00000000
      46         -1.769063        1.000000        0.00000000        0.00000000        0.00000000
      47         -1.768532        1.000000        0.00000000        0.00000000        0.00000000
      48         -1.768412        1.000000        0.00000000        0.00000000        0.00000000
      49         -1.767811        1.000000        0.00000000        0.00000000        0.00000000
      50         -1.767614        1.000000        0.00000000        0.00000000        0.00000000
      51         -1.767477        1.000000        0.00000000        0.00000000        0.00000000
      52         -1.765531        1.000000        0.00000000        0.00000000        0.00000000
      53         -1.765088        1.000000        0.00000000        0.00000000        0.00000000
      54         -1.764557        1.000000        0.00000000        0.00000000        0.00000000
      55         -1.763772        1.000000        0.00000000        0.00000000        0.00000000
      56         -1.763328        1.000000        0.00000000        0.00000000        0.00000000
      57         -1.762925        1.000000        0.00000000        0.00000000        0.00000000
      58         -1.762506        1.000000        0.00000000        0.00000000        0.00000000
      59         -1.762119        1.000000        0.00000000        0.00000000        0.00000000
      60         -1.762053        1.000000        0.00000000        0.00000000        0.00000000
      61         -1.761895        1.000000        0.00000000        0.00000000        0.00000000
      62         -1.761602        1.000000        0.00000000        0.00000000        0.00000000
      63         -1.761509        1.000000        0.00000000        0.00000000        0.00000000
      64         -1.761377        1.000000        0.00000000        0.00000000        0.00000000
      65         -1.761171        1.000000        0.00000000        0.00000000        0.00000000
      66         -1.760998        1.000000        0.00000000        0.00000000        0.00000000
      67         -1.760877        1.000000        0.00000000        0.00000000        0.00000000
      68         -1.760806        1.000000        0.00000000        0.00000000        0.00000000
      69         -1.760684        1.000000        0.00000000        0.00000000        0.00000000
      70         -1.760645        1.000000        0.00000000        0.00000000        0.00000000
      71         -1.760442        1.000000        0.00000000        0.00000000        0.00000000
      72         -1.760098        1.000000        0.00000000        0.00000000        0.00000000
      73         -1.759962        1.000000        0.00000000        0.00000000        0.00000000
      74         -1.759824        1.000000        0.00000000        0.00000000        0.00000000
      75         -1.759787        1.000000        0.00000000        0.00000000        0.00000000
      76         -1.759638        1.000000        0.00000000        0.00000000        0.00000000
      77         -1.759601        1.000000        0.00000000        0.00000000        0.00000000
      78         -1.759512        1.000000        0.00000000        0.00000000        0.00000000
      79         -1.759406        1.000000        0.00000000        0.00000000        0.00000000
      80         -1.759287        1.000000        0.00000000        0.00000000        0.00000000
      81         -1.759176        1.000000        0.00000000        0.00000000        0.00000000
      82         -1.758872        1.000000        0.00000000        0.00000000        0.00000000
      83         -1.758781        1.000000        0.00000000        0.00000000        0.00000000
      84         -1.758726        1.000000        0.00000000        0.00000000        0.00000000
      85         -1.758559        1.000000        0.00000000        0.00000000        0.00000000
      86         -1.758378        1.000000        0.00000000        0.00000000        0.00000000
      87         -1.758294        1.000000        0.00000000        0.00000000        0.00000000
      88         -1.758087        1.000000        0.00000000        0.00000000        0.00000000
      89         -1.757987        1.000000        0.00000000        0.00000000        0.00000000
      90         -1.757734        1.000000        0.00000000        0.00000000        0.00000000
      91         -1.757649        1.000000        0.00000000        0.00000000        0.00000000
      92         -1.757529        1.000000        0.00000000        0.00000000        0.00000000
      93         -1.757404        1.000000        0.00000000        0.00000000        0.00000000
      94         -1.757324        1.000000        0.00000000        0.00000000        0.00000000
      95         -1.757187        1.000000        0.00000000        0.00000000        0.00000000
      96         -1.757137        1.000000        0.00000000        0.00000000        0.00000000
      97         -1.756770        1.000000        0.00000000        0.00000000        0.00000000
      98         -1.756598        1.000000        0.00000000        0.00000000        0.00000000
      99         -1.756513        1.000000        0.00000000        0.00000000        0.00000000
     100         -1.756186        1.000000        0.00000000        0.00000000        0.00000000
     101         -1.755847        1.000000        0.00000000        0.00000000        0.00000000
     102         -1.755716        1.000000        0.00000000        0.00000000        0.00000000
     103         -1.755306        1.000000        0.00000000        0.00000000        0.00000000
     104         -1.755052        1.000000        0.00000000        0.00000000        0.00000000
     105         -1.754765        1.000000        0.00000000        0.00000000        0.00000000
     106         -1.754094        1.000000        0.00000000        0.00000000        0.00000000
     107         -1.753681        1.000000        0.00000000        0.00000000        0.00000000
     108         -1.753548        1.000000        0.00000000        0.00000000        0.00000000
     109         -1.753256        1.000000        0.00000000        0.00000000        0.00000000
     110         -1.752675        1.000000        0.00000000        0.00000000        0.00000000
     111         -1.752502        1.000000        0.00000000        0.00000000        0.00000000
     112         -1.752253        1.000000        0.00000000        0.00000000        0.00000000
     113         -1.751643        1.000000        0.00000000        0.00000000        0.00000000
     114         -1.751317        1.000000        0.00000000        0.00000000        0.00000000
     115         -1.749193        1.000000        0.00000000        0.00000000        0.00000000
     116         -1.748137        1.000000        0.00000000        0.00000000        0.00000000
     117         -1.747283        1.000000        0.00000000        0.00000000        0.00000000
     118         -1.745962        1.000000        0.00000000        0.00000000        0.00000000
     119         -1.745880        1.000000        0.00000000        0.00000000        0.00000000
     120         -1.744143        1.000000        0.00000000        0.00000000        0.00000000
     121         -1.145318        1.000000        0.00019715        0.00002583        0.00000608
     122         -1.141162        1.000000        0.00011190        0.00001061        0.00000325
     123         -1.135518        1.000000        0.00677448        0.00100201        0.00021612
     124         -1.134356        1.000000        0.00324383        0.00031808        0.00010004
     125         -1.132797        1.000000        0.00003446        0.00006546        0.00000743
     126         -1.131675        1.000000        0.00156080        0.00035196        0.00005478
     127         -1.130657        1.000000        0.00028297        0.00007603        0.00000622
     128         -1.129329        1.000000        0.00560396        0.00118115        0.00021802
     129         -1.127805        1.000000        0.00893982        0.00298769        0.00029181
     130         -1.126970        1.000000        0.00000064        0.00012349        0.00001257
     131         -1.125100        1.000000        0.00110423        0.00073032        0.00006089
     132         -1.124640        1.000000        0.00009501        0.00014031        0.00001377
     133         -1.122028        1.000000        0.00003963        0.00161837        0.00007892
     134         -1.120887        1.000000        0.00831847        0.00042633        0.00023863
     135         -1.119308        1.000000        0.00144253        0.00025648        0.00006950
     136         -1.118408        1.000000        0.00328609        0.00014015        0.00010449
     137         -1.117769        1.000000        0.00012035        0.00007350        0.00001502
     138         -1.116570        1.000000        0.00002875        0.00032984        0.00009473
     139         -1.115096        1.000000        0.00018936        0.00003670        0.00000932
     140         -1.114402        1.000000        0.00097898        0.00006917        0.00002925
     141         -1.114039        1.000000        0.00003807        0.00101447        0.00003464
     142         -1.112381        1.000000        0.00435918        0.00021247        0.00013420
     143         -1.111588        1.000000        0.00334414        0.00013908        0.00011419
     144         -1.111356        1.000000        0.00013396        0.00006776        0.00001711
     145         -1.110913        1.000000        0.00003144        0.00020056        0.00001505
     146         -1.109631        1.000000        0.00025406        0.00009702        0.00001405
     147         -1.107338        1.000000        0.00080650        0.00023440        0.00003558
     148         -1.107163        1.000000        0.00068716        0.00005465        0.00002608
     149         -1.106911        1.000000        0.00035134        0.00002506        0.00001339
     150         -1.105904        1.000000        0.00014272        0.00015737        0.00000677
     151         -1.104513        1.000000        0.00006340        0.00010438        0.00000638
     152         -1.103753        1.000000        0.00025820        0.00000699        0.00000921
     153         -1.103233        1.000000        0.00043241        0.00048959        0.00001543
     154         -1.101116        1.000000        0.00061120        0.00003639        0.00003496
     155         -1.099878        1.000000        0.00000521        0.00038314        0.00003888
     156         -1.099527        1.000000        0.00006834        0.00047908        0.00000784
     157         -1.099360        1.000000        0.00334368        0.00028611        0.00013283
     158         -1.097449        1.000000        0.00199123        0.00016314        0.00010623
     159         -1.097246        1.000000        0.00181022        0.00077096        0.00005978
     160         -1.096336        1.000000        0.00087930        0.00014137        0.00002481
     161         -1.095776        1.000000        0.00001137        0.00000775        0.00001102
     162         -1.094258        1.000000        0.00036356        0.00035723        0.00002900
     163         -1.093701        1.000000        0.00089793        0.00030816        0.00000892
     164         -1.093107        1.000000        0.00192146        0.00058829        0.00002304
     165         -1.091600        1.000000        0.00140242        0.00022765        0.00003474
     166         -1.090890        1.000000        0.00204243        0.00033478        0.00003407
     167         -1.090283        1.000000        0.00023699        0.00006233        0.00002328
     168         -1.089378        1.000000        0.00329124        0.00074905        0.00006110
     169         -1.088506        1.000000        0.00009938        0.00001980        0.00003257
     170         -1.086931        1.000000        0.00047917        0.00041549        0.00010108
     171         -1.086367        1.000000        0.00549759        0.00050251        0.00011311
     172         -1.085327        1.000000        0.00512914        0.00064150        0.00015614
     173         -1.084766        1.000000        0.00000874        0.00000258        0.00000233
     174         -1.083961        1.000000        0.00046331        0.00004525        0.00000545
     175         -1.082920        1.000000        0.00146432        0.00013187        0.00002749
     176         -1.081700        1.000000        0.00010368        0.00005625        0.00002628
     177         -1.081031        1.000000        0.00356085        0.00043223        0.00003352
     178         -1.080558        1.000000        0.00045589        0.00010828        0.00003193
     179         -1.080415        1.000000        0.00137098        0.00007561        0.00002032
     180         -1.080047        1.000000        0.00042138        0.00003381        0.00002223
     181         -1.077309        1.000000        0.00019943        0.00004128        0.00002565
     182         -1.076601        1.000000        0.00015841        0.00035163        0.00007213
     183         -1.076342        1.000000        0.00014718        0.00033584        0.00010323
     184         -1.076154        1.000000        0.00032470        0.00002788        0.00001207
     185         -1.075469        1.000000        0.00146154        0.00009181        0.00002717
     186         -1.074904        1.000000        0.00037246        0.00004635        0.00006381
     187         -1.074160        1.000000        0.00000032        0.00004953        0.00004480
     188         -1.073364        1.000000        0.00294048        0.00015543        0.00004699
     189         -1.071841        1.000000        0.00006738        0.00002924        0.00002704
     190         -1.071436        1.000000        0.00000505        0.00000684        0.00000281
     191         -1.070358        1.000000        0.00495522        0.00023699        0.00006797
     192         -1.070160        1.000000        0.00020037        0.00016368        0.00005348
     193         -1.069551        1.000000        0.00000282        0.00001247        0.00003416
     194         -1.069042        1.000000        0.00172277        0.00011337        0.00001153
     195         -1.068018        1.000000        0.00159868        0.00010426        0.00013002
     196         -1.067683        1.000000        0.00045065        0.00012251        0.00006926
     197         -1.067094        1.000000        0.00073242        0.00008847        0.00000710
     198         -1.066200        1.000000        0.00043546        0.00002538        0.00000274
     199         -1.065105        1.000000        0.00001082        0.00001829        0.00000476
     200         -1.064600        1.000000        0.00001323        0.00002471        0.00007014
     201         -1.063825        1.000000        0.00007122        0.00000453        0.00000643
     202         -1.063672        1.000000        0.00102596        0.00005935        0.00006678
     203         -1.062915        1.000000        0.00001263        0.00012568        0.00015492
     204         -1.062259        1.000000        0.00000317        0.00000727        0.00000605
     205         -1.061986        1.000000        0.00323797        0.00016097        0.00008549
     206         -1.060822        1.000000        0.00108268        0.00007183        0.00002508
     207         -1.060230        1.000000        0.00007310        0.00002258        0.00000804
     208         -1.059971        1.000000        0.00059982        0.00008755        0.00008561
     209         -1.059399        1.000000        0.00133703        0.00006846        0.00002599
     210         -1.058798        1.000000        0.00000017        0.00004704        0.00003272
     211         -1.058498        1.000000        0.00001404        0.00000346        0.00000551
     212         -1.057049        1.000000        0.00185621        0.00003003        0.00002773
     213         -1.056896        1.000000        0.00003848        0.00003346        0.00000493
     214         -1.056403        1.000000        0.00010843        0.00003097        0.00000658
     215         -1.056079        1.000000        0.00036364        0.00001849        0.00000673
     216         -1.055624        1.000000        0.00211719        0.00006605        0.00003405
     217         -1.055288        1.000000        0.00032628        0.00000663        0.00000759
     218         -1.054828        1.000000        0.00007279        0.00000921        0.00000927
     219         -1.054413        1.000000        0.00000048        0.00000452        0.00000599
     220         -1.053990        1.000000        0.00018117        0.00002682        0.00001306
     221         -1.053598        1.000000        0.00039798        0.00001300        0.00000511
     222         -1.053387        1.000000        0.00157405        0.00005014        0.00001964
     223         -1.052953        1.000000        0.00004734        0.00000325        0.00000183
     224         -1.052779        1.000000        0.00000016        0.00000848        0.00000315
     225         -1.052376        1.000000        0.00001725        0.00003420        0.00002089
     226         -1.052297        1.000000        0.00096325        0.00003835        0.00002160
     227         -1.051819        1.000000        0.00018663        0.00002558        0.00000895
     228         -1.051536        1.000000        0.00019943        0.00000597        0.00001919
     229         -1.051232        1.000000        0.00119839        0.00002748        0.00000858
     230         -1.050581        1.000000        0.00020165        0.00000367        0.00000350
     231         -1.050140        1.000000        0.00005357        0.00000232        0.00000264
     232         -1.049834        1.000000        0.00811727        0.00011679        0.00004261
     233         -1.049588        1.000000        0.00011005        0.00000167        0.00000028
     234         -1.049506        1.000000        0.00015592        0.00000592        0.00000442
     235         -1.048565        1.000000        0.00275985        0.00004015        0.00001643
     236         -1.048103        1.000000        0.00004321        0.00001017        0.00001100
     237         -1.048023        1.000000        0.00111349        0.00001598        0.00000787
     238         -1.047651        1.000000        0.00112632        0.00002701        0.00002041
     239         -1.047305        1.000000        0.00001573        0.00000251        0.00000182
     240         -1.046707        1.000000        0.00040705        0.00000759        0.00000128
     241         -1.046592        1.000000        0.00023565        0.00000511        0.00000176
     242         -1.046281        1.000000        0.00002856        0.00000177        0.00000209
     243         -1.045974        1.000000        0.00357171        0.00005586        0.00001423
     244         -1.045866        1.000000        0.00000234        0.00000817        0.00000336
     245         -1.045771        1.000000        0.00125651        0.00001511        0.00000692
     246         -1.045301        1.000000        0.00005835        0.00000121        0.00000062
     247         -1.045020        1.000000        0.00087997        0.00002179        0.00000363
     248         -1.043956        1.000000        0.00039553        0.00001173        0.00000216
     249         -1.043818        1.000000        0.05198370        0.00057312        0.00020877
     250         -1.043244        1.000000        0.04299424        0.00052588        0.00024585
     251         -1.043119        1.000000        0.00045834        0.00000508        0.00000305
     252         -1.042993        1.000000        0.00245628        0.00002848        0.00001013
     253         -1.042515        1.000000        0.00006182        0.00009536        0.00004136
     254         -1.041302        1.000000        0.00022972        0.00000483        0.00000117
     255         -1.041116        1.000000        0.00159799        0.00001952        0.00000145
     256         -1.040594        1.000000        0.00015284        0.00000715        0.00000345
     257         -1.040094        1.000000        0.00950792        0.00010946        0.00000622
     258         -1.039599        1.000000        0.00774357        0.00008265        0.00001715
     259         -1.039408        1.000000        0.00000005        0.00000170        0.00000086
     260         -1.038970        1.000000        0.00069762        0.00001164        0.00000209
     261         -1.038561        1.000000        0.00122525        0.00001698        0.00000112
     262         -1.038022        1.000000        0.00033353        0.00000329        0.00000071
     263         -1.037841        1.000000        0.29746407        0.00365392        0.00014621
     264         -1.036991        1.000000        0.00540895        0.00006206        0.00000305
     265         -1.036854        1.000000        0.00001548        0.00000074        0.00000068
     266         -1.035910        1.000000        0.00013472        0.00000149        0.00000019
     267         -1.035115        1.000000        0.00013695        0.00000380        0.00000212
     268         -1.034275        1.000000        0.00118942        0.00001317        0.00000158
     269         -1.033697        1.000000        0.00074820        0.00000769        0.00000146
     270         -1.033444        1.000000        0.00003447        0.00000196        0.00000049
     271         -1.033385        1.000000        0.00034994        0.00000554        0.00000034
     272         -1.033262        1.000000        0.00023250        0.00000227        0.00000022
     273         -1.032346        1.000000        0.00006754        0.00000174        0.00000014
     274         -1.031626        1.000000        0.00005263        0.00000057        0.00000015
     275         -1.030746        1.000000        0.00000093        0.00000002        0.00000000
     276         -1.029780        1.000000        0.00010274        0.00000111        0.00000038
     277         -1.028980        1.000000        0.00012753        0.00000139        0.00000043
     278         -1.027492        1.000000        0.00086283        0.00001216        0.00000235
     279         -1.025795        1.000000        0.00017125        0.00000450        0.00000066
     280         -1.023990        1.000000        0.00004010        0.00000064        0.00000071
     281         -1.022755        1.000000        0.00000016        0.00000002        0.00000001
     282         -1.019871        1.000000        0.00000024        0.00000001        0.00000000
     283         -1.017737        1.000000        0.00000071        0.00000084        0.00000018
     284         -1.012409        1.000000        0.00002914        0.00000087        0.00000033
     285         -1.010522        1.000000        0.00000000        0.00000000        0.00000000
     286         -0.880961        1.000000        0.00000010        0.00000005        0.00000000
     287         -0.861761        1.000000        0.00000002        0.00000006        0.00000001
     288         -0.860652        1.000000        0.00000001        0.00000006        0.00000000
     289         -0.854811        1.000000        0.00000000        0.00000002        0.00000000
     290         -0.853189        1.000000        0.00000002        0.00000000        0.00000000
     291         -0.838407        1.000000        0.00000001        0.00000001        0.00000000
     292         -0.837131        1.000000        0.00000002        0.00000003        0.00000000
     293         -0.835422        1.000000        0.00000001        0.00000000        0.00000001
     294         -0.832873        1.000000        0.00000000        0.00000002        0.00000000
     295         -0.813092        1.000000        0.00000001        0.00000001        0.00000001
     296         -0.811309        1.000000        0.00000000        0.00000001        0.00000000
     297         -0.805633        1.000000        0.00000014        0.00000010        0.00000001
     298         -0.800994        1.000000        0.00000000        0.00000002        0.00000000
     299         -0.798544        1.000000        0.00000001        0.00000002        0.00000000
     300         -0.797176        1.000000        0.00000001        0.00000001        0.00000000
     301         -0.796065        1.000000        0.00000000        0.00000002        0.00000000
     302         -0.795247        1.000000        0.00000000        0.00000001        0.00000000
     303         -0.794465        1.000000        0.00000001        0.00000000        0.00000000
     304         -0.792558        1.000000        0.00000000        0.00000000        0.00000000
     305         -0.791532        1.000000        0.00000001        0.00000003        0.00000000
     306         -0.790931        1.000000        0.00000000        0.00000001        0.00000000
     307         -0.790366        1.000000        0.00000001        0.00000000        0.00000000