# Projected DOS for list 207 of 1 atoms, at iteration step i = 0, E(Fermi) =    -0.237583 a.u.
#     MO Eigenvalue [a.u.]      Occupation                 s                 p                 d                 f
       1         -3.115895        1.000000        0.00005707        0.00005973        0.00027272        0.00000136
       2         -3.112717        1.000000        0.00004006        0.00002256        0.00017521        0.00000350
       3         -3.112103        1.000000        0.00010999        0.00000351        0.00022462        0.00000224
       4         -3.111180        1.000000        0.00000555        0.00001261        0.00001153        0.00001053
       5         -3.110810        1.000000        0.00007957        0.00000097        0.00005415        0.00000107
       6         -3.110575        1.000000        0.00010378        0.00000199        0.00004641        0.00000587
       7         -3.110067        1.000000        0.00000855        0.00000170        0.00000354        0.00000055
       8         -3.109817        1.000000        0.00000226        0.00000557        0.00000609        0.00000088
       9         -3.109660        1.000000        0.07618919        0.00107381        0.00747843        0.00022325
      10         -3.108831        1.000000        0.08891654        0.00040311        0.00303901        0.00007010
      11         -3.108678        1.000000        0.11065875        0.00022359        0.00385059        0.00003959
      12         -3.108578        1.000000        0.07761814        0.00002547        0.00204586        0.00001131
      13         -3.108350        1.000000        0.06668728        0.00270175        0.00010903        0.00028710
      14         -3.108163        1.000000        0.04512016        0.00021743        0.00150227        0.00001949
      15         -3.107948        1.000000        0.08074325        0.00001681        0.00428399        0.00000467
      16         -3.107865        1.000000        0.00007055        0.00016394        0.00146355        0.00005228
      17         -3.107703        1.000000        0.00290693        0.00016424        0.00064196        0.00010499
      18         -3.107683        1.000000        0.09073556        0.00015195        0.00658560        0.00033143
      19         -3.107641        1.000000        0.12670570        0.00042231        0.00412405        0.00011528
      20         -3.107604        1.000000        0.07016584        0.00014083        0.00433718        0.00000282
      21         -3.107402        1.000000        0.00032748        0.00034573        0.00724333        0.00015152
      22         -3.107115        1.000000        0.00007910        0.00000463        0.00004150        0.00000620
      23         -3.107013        1.000000        0.01992944        0.00043954        0.00262492        0.00005682
      24         -3.106750        1.000000        0.00231874        0.00002525        0.00097689        0.00005607
      25         -3.106619        1.000000        0.00994265        0.00015490        0.00333100        0.00017222
      26         -3.106567        1.000000        0.00023832        0.00014798        0.00294521        0.00024835
      27         -3.106546        1.000000        0.00122388        0.00002815        0.00093021        0.00001986
      28         -3.106258        1.000000        0.00001123        0.00000641        0.00014946        0.00000717
      29         -3.106103        1.000000        0.00004767        0.00001301        0.00014877        0.00000738
      30         -3.104674        1.000000        0.00000015        0.00000010        0.00000175        0.00000016
      31         -1.775522        1.000000        0.00000745        0.00784869        0.00002306        0.00002830
      32         -1.773964        1.000000        0.00000466        0.00732004        0.00000879        0.00000558
      33         -1.773454        1.000000        0.00025058        0.00741930        0.00041253        0.00002511
      34         -1.773008        1.000000        0.00003826        0.01143123        0.00084614        0.00000566
      35         -1.772581        1.000000        0.00000590        0.03218774        0.00035222        0.00008134
      36         -1.772213        1.000000        0.00004756        0.06928990        0.00049044        0.00000882
      37         -1.771852        1.000000        0.00003825        0.00379662        0.00021268        0.00003575
      38         -1.771444        1.000000        0.00022559        0.00489342        0.00018041        0.00002091
      39         -1.771233        1.000000        0.00000227        0.04646960        0.00038806        0.00004055
      40         -1.770977        1.000000        0.00000800        0.11935340        0.00004536        0.00009194
      41         -1.770760        1.000000        0.00014870        0.00883087        0.00032745        0.00001473
      42         -1.770111        1.000000        0.00009562        0.02391597        0.00006309        0.00001498
      43         -1.770034        1.000000        0.00001097        0.03403021        0.00012180        0.00001565
      44         -1.769495        1.000000        0.00020542        0.00342900        0.00084615        0.00001676
      45         -1.769421        1.000000        0.00018325        0.01572645        0.00011979        0.00001793
      46         -1.769063        1.000000        0.00003161        0.10559112        0.00009226        0.00001291
      47         -1.768532        1.000000        0.00004629        0.08338977        0.00019322        0.00002105
      48         -1.768412        1.000000        0.00008717        0.03030208        0.00024831        0.00000649
      49         -1.767811        1.000000        0.00066792        0.03036110        0.00082221        0.00002219
      50         -1.767614        1.000000        0.00019532        0.01012277        0.00040042        0.00002675
      51         -1.767477        1.000000        0.00030113        0.00013483        0.00058886        0.00000522
      52         -1.765531        1.000000        0.00000433        0.04943410        0.00122507        0.00000715
      53         -1.765088        1.000000        0.00002338        0.01136495        0.00005618        0.00000533
      54         -1.764557        1.000000        0.00003044        0.01802106        0.00112316        0.00000204
      55         -1.763772        1.000000        0.00001205        0.00035985        0.00014987        0.00000453
      56         -1.763328        1.000000        0.00000280        0.00187886        0.00014449        0.00000285
      57         -1.762925        1.000000        0.00005047        0.00579415        0.00007184        0.00000480
      58         -1.762506        1.000000        0.00001411        0.02383808        0.00013223        0.00002077
      59         -1.762119        1.000000        0.00002141        0.00094244        0.00009393        0.00000056
      60         -1.762053        1.000000        0.00022709        0.02420035        0.00018276        0.00000158
      61         -1.761895        1.000000        0.00017355        0.04071957        0.00011591        0.00002292
      62         -1.761602        1.000000        0.00011752        0.04310995        0.00020668        0.00002087
      63         -1.761509        1.000000        0.00026381        0.00683584        0.00022892        0.00000439
      64         -1.761377        1.000000        0.00000386        0.02260560        0.00005226        0.00000538
      65         -1.761171        1.000000        0.00001303        0.04992085        0.00013698        0.00001855
      66         -1.760998        1.000000        0.00012675        0.00557708        0.00040113        0.00001314
      67         -1.760877        1.000000        0.00014326        0.02705610        0.00020899        0.00000246
      68         -1.760806        1.000000        0.00018970        0.01653556        0.00020257        0.00001574
      69         -1.760684        1.000000        0.00008279        0.02431725        0.00006825        0.00000607
      70         -1.760645        1.000000        0.00009188        0.00801868        0.00032279        0.00000836
      71         -1.760442        1.000000        0.00011582        0.01395031        0.00050396        0.00000921
      72         -1.760098        1.000000        0.00004271        0.00675460        0.00050117        0.00003233
      73         -1.759962        1.000000        0.00005905        0.01918106        0.00029915        0.00000228
      74         -1.759824        1.000000        0.00002965        0.01170708        0.00004876        0.00001099
      75         -1.759787        1.000000        0.00005893        0.00939797        0.00013514        0.00000918
      76         -1.759638        1.000000        0.00003103        0.01978225        0.00002957        0.00000154
      77         -1.759601        1.000000        0.00000253        0.00280960        0.00018521        0.00000493
      78         -1.759512        1.000000        0.00003044        0.02483145        0.00051600        0.00000359
      79         -1.759406        1.000000        0.00001656        0.00446297        0.00022673        0.00002287
      80         -1.759287        1.000000        0.00000362        0.00494365        0.00031159        0.00000427
      81         -1.759176        1.000000        0.00012479        0.01962933        0.00025021        0.00002149
      82         -1.758872        1.000000        0.00022217        0.01097230        0.00028861        0.00000426
      83         -1.758781        1.000000        0.00000658        0.00595294        0.00003517        0.00001058
      84         -1.758726        1.000000        0.00014246        0.03101644        0.00022068        0.00000729
      85         -1.758559        1.000000        0.00000240        0.00783398        0.00011896        0.00000239
      86         -1.758378        1.000000        0.00000127        0.14196030        0.00015908        0.00004348
      87         -1.758294        1.000000        0.00000445        0.19496074        0.00003785        0.00001494
      88         -1.758087        1.000000        0.00001154        0.01965089        0.00014638        0.00003236
      89         -1.757987        1.000000        0.00000105        0.01310788        0.00007270        0.00000853
      90         -1.757734        1.000000        0.00036504        0.05898369        0.00037855        0.00002583
      91         -1.757649        1.000000        0.00008950        0.14129160        0.00026550        0.00002597
      92         -1.757529        1.000000        0.00001153        0.03183773        0.00036350        0.00001277
      93         -1.757404        1.000000        0.00000767        0.19648605        0.00020523        0.00005159
      94         -1.757324        1.000000        0.00006769        0.03900617        0.00153574        0.00000322
      95         -1.757187        1.000000        0.00000513        0.01664988        0.00026411        0.00001271
      96         -1.757137        1.000000        0.00001606        0.06723972        0.00009313        0.00001842
      97         -1.756770        1.000000        0.00000663        0.01005684        0.00008044        0.00002550
      98         -1.756598        1.000000        0.00001498        0.04921107        0.00005947        0.00001028
      99         -1.756513        1.000000        0.00000031        0.00040234        0.00012488        0.00002461
     100         -1.756186        1.000000        0.00000192        0.01335827        0.00014133        0.00002667
     101         -1.755847        1.000000        0.00001644        0.01199493        0.00040145        0.00000907
     102         -1.755716        1.000000        0.00001091        0.06040946        0.00009600        0.00001223
     103         -1.755306        1.000000        0.00003563        0.01502856        0.00003973        0.00001079
     104         -1.755052        1.000000        0.00000155        0.02506886        0.00044750        0.00001181
     105         -1.754765        1.000000        0.00008723        0.00369720        0.00040880        0.00002297
     106         -1.754094        1.000000        0.00003206        0.06097231        0.00059036        0.00001352
     107         -1.753681        1.000000        0.00004258        0.03679175        0.00051076        0.00001246
     108         -1.753548        1.000000        0.00030281        0.00431211        0.00047144        0.00000778
     109         -1.753256        1.000000        0.00000103        0.06835372        0.00013239        0.00000758
     110         -1.752675        1.000000        0.00010101        0.01702767        0.00009722        0.00000396
     111         -1.752502        1.000000        0.00003427        0.02740437        0.00010245        0.00001150
     112         -1.752253        1.000000        0.00011131        0.06581776        0.00025494        0.00001511
     113         -1.751643        1.000000        0.00005236        0.01067135        0.00050513        0.00001571
     114         -1.751317        1.000000        0.00001226        0.03018108        0.00017924        0.00000342
     115         -1.749193        1.000000        0.00001430        0.09140844        0.00001686        0.00010029
     116         -1.748137        1.000000        0.00000102        0.05912101        0.00000450        0.00007247
     117         -1.747283        1.000000        0.00000092        0.00882084        0.00004551        0.00001266
     118         -1.745962        1.000000        0.00000145        0.00027819        0.00002872        0.00000043
     119         -1.745880        1.000000        0.00000249        0.06856335        0.00000929        0.00008761
     120         -1.744143        1.000000        0.00000037        0.00426821        0.00000723        0.00000508
     121         -1.145318        1.000000        0.00000000        0.00000000        0.00000000        0.00000000
     122         -1.141162        1.000000        0.00000000        0.00000000        0.00000000        0.00000000
     123         -1.135518        1.000000        0.00000006        0.00000003        0.00000004        0.00000000
     124         -1.134356        1.000000        0.00000001        0.00000001        0.00000000        0.00000000
     125         -1.132797        1.000000        0.00000000        0.00000000        0.00000000        0.00000000
     126         -1.131675        1.000000        0.00000000        0.00000000        0.00000001        0.00000000
     127         -1.130657        1.000000        0.00000000        0.00000000        0.00000001        0.00000000
     128         -1.129329        1.000000        0.00000000        0.00000000        0.00000001        0.00000000
     129         -1.127805        1.000000        0.00000000        0.00000000        0.00000000        0.00000000
     130         -1.126970        1.000000        0.00000000        0.00000000        0.00000002        0.00000000
     131         -1.125100        1.000000        0.00000001        0.00000001        0.00000004        0.00000001
     132         -1.124640        1.000000        0.00000000        0.00000000        0.00000001        0.00000000
     133         -1.122028        1.000000        0.00000000        0.00000000        0.00000000        0.00000000
     134         -1.120887        1.000000        0.00000000        0.00000000        0.00000000        0.00000000
     135         -1.119308        1.000000        0.00000000        0.00000000        0.00000000        0.00000000
     136         -1.118408        1.000000        0.00000000        0.00000000        0.00000000        0.00000000
     137         -1.117769        1.000000        0.00000000        0.00000000        0.00000000        0.00000000
     138         -1.116570        1.000000        0.00000002        0.00000001        0.00000001        0.00000000
     139         -1.115096        1.000000        0.00000000        0.00000000        0.00000000        0.00000000
     140         -1.114402        1.000000        0.00000000        0.00000000        0.00000000        0.00000000
     141         -1.114039        1.000000        0.00000000        0.00000000        0.00000000        0.00000000
     142         -1.112381        1.000000        0.00000000        0.00000001        0.00000002        0.00000000
     143         -1.111588        1.000000        0.00000001        0.00000001        0.00000002        0.00000000
     144         -1.111356        1.000000        0.00000000        0.00000001        0.00000001        0.00000000
     145         -1.110913        1.000000        0.00000000        0.00000000        0.00000000        0.00000000
     146         -1.109631        1.000000        0.00000000        0.00000000        0.00000000        0.00000000
     147         -1.107338        1.000000        0.00000000        0.00000000        0.00000000        0.00000000
     148         -1.107163        1.000000        0.00000000        0.00000000        0.00000000        0.00000000
     149         -1.106911        1.000000        0.00000000        0.00000000        0.00000000        0.00000000
     150         -1.105904        1.000000        0.00000000        0.00000000        0.00000000        0.00000000
     151         -1.104513        1.000000        0.00000000        0.00000000        0.00000000        0.00000000
     152         -1.103753        1.000000        0.00000000        0.00000001        0.00000000        0.00000000
     153         -1.103233        1.000000        0.00000000        0.00000000        0.00000000        0.00000000
     154         -1.101116        1.000000        0.00000000        0.00000002        0.00000003        0.00000000
     155         -1.099878        1.000000        0.00000001        0.00000002        0.00000002        0.00000000
     156         -1.099527        1.000000        0.00000000        0.00000000        0.00000001        0.00000000
     157         -1.099360        1.000000        0.00000004        0.00000004        0.00000002        0.00000000
     158         -1.097449        1.000000        0.00000001        0.00000000        0.00000000        0.00000000
     159         -1.097246        1.000000        0.00000000        0.00000000        0.00000003        0.00000000
     160         -1.096336        1.000000        0.00000002        0.00000003        0.00000006        0.00000000
     161         -1.095776        1.000000        0.00000003        0.00000004        0.00000008        0.00000000
     162         -1.094258        1.000000        0.00000000        0.00000002        0.00000002        0.00000000
     163         -1.093701        1.000000        0.00000000        0.00000001        0.00000001        0.00000000
     164         -1.093107        1.000000        0.00000000        0.00000002        0.00000002        0.00000000
     165         -1.091600        1.000000        0.00000000        0.00000000        0.00000000        0.00000000
     166         -1.090890        1.000000        0.00000000        0.00000000        0.00000001        0.00000000
     167         -1.090283        1.000000        0.00000000        0.00000000        0.00000000        0.00000000
     168         -1.089378        1.000000        0.00000001        0.00000000        0.00000001        0.00000000
     169         -1.088506        1.000000        0.00000000        0.00000004        0.00000004        0.00000000
     170         -1.086931        1.000000        0.00000000        0.00000000        0.00000001        0.00000000
     171         -1.086367        1.000000        0.00000000        0.00000001        0.00000002        0.00000000
     172         -1.085327        1.000000        0.00000000        0.00000001        0.00000002        0.00000000
     173         -1.084766        1.000000        0.00000000        0.00000001        0.00000001        0.00000000
     174         -1.083961        1.000000        0.00000000        0.00000000        0.00000000        0.00000000
     175         -1.082920        1.000000        0.00000000        0.00000000        0.00000001        0.00000000
     176         -1.081700        1.000000        0.00000002        0.00000002        0.00000001        0.00000000
     177         -1.081031        1.000000        0.00000000        0.00000000        0.00000001        0.00000000
     178         -1.080558        1.000000        0.00000000        0.00000000        0.00000000        0.00000000
     179         -1.080415        1.000000        0.00000001        0.00000000        0.00000002        0.00000000
     180         -1.080047        1.000000        0.00000001        0.00000000        0.00000001        0.00000000
     181         -1.077309        1.000000        0.00000003        0.00000002        0.00000002        0.00000000
     182         -1.076601        1.000000        0.00000000        0.00000001        0.00000001        0.00000000
     183         -1.076342        1.000000        0.00000000        0.00000000        0.00000000        0.00000000
     184         -1.076154        1.000000        0.00000003        0.00000001        0.00000000        0.00000000
     185         -1.075469        1.000000        0.00000000        0.00000000        0.00000001        0.00000000
     186         -1.074904        1.000000        0.00000000        0.00000000        0.00000000        0.00000000
     187         -1.074160        1.000000        0.00000000        0.00000000        0.00000000        0.00000000
     188         -1.073364        1.000000        0.00000000        0.00000000        0.00000000        0.00000000
     189         -1.071841        1.000000        0.00000001        0.00000001        0.00000001        0.00000000
     190         -1.071436        1.000000        0.00000000        0.00000000        0.00000000        0.00000000
     191         -1.070358        1.000000        0.00000001        0.00000001        0.00000001        0.00000000
     192         -1.070160        1.000000        0.00000001        0.00000001        0.00000002        0.00000000
     193         -1.069551        1.000000        0.00000003        0.00000002        0.00000001        0.00000000
     194         -1.069042        1.000000        0.00000000        0.00000000        0.00000002        0.00000000
     195         -1.068018        1.000000        0.00000003        0.00000002        0.00000002        0.00000000
     196         -1.067683        1.000000        0.00000000        0.00000001        0.00000002        0.00000000
     197         -1.067094        1.000000        0.00000000        0.00000002        0.00000001        0.00000000
     198         -1.066200        1.000000        0.00000000        0.00000001        0.00000001        0.00000000
     199         -1.065105        1.000000        0.00000001        0.00000002        0.00000001        0.00000000
     200         -1.064600        1.000000        0.00000001        0.00000001        0.00000002        0.00000000
     201         -1.063825        1.000000        0.00000001        0.00000002        0.00000001        0.00000000
     202         -1.063672        1.000000        0.00000002        0.00000002        0.00000004        0.00000000
     203         -1.062915        1.000000        0.00000001        0.00000001        0.00000002        0.00000000
     204         -1.062259        1.000000        0.00000000        0.00000001        0.00000000        0.00000000
     205         -1.061986        1.000000        0.00000005        0.00000004        0.00000008        0.00000001
     206         -1.060822        1.000000        0.00000001        0.00000001        0.00000001        0.00000000
     207         -1.060230        1.000000        0.00000001        0.00000001        0.00000003        0.00000000
     208         -1.059971        1.000000        0.00000002        0.00000007        0.00000007        0.00000001
     209         -1.059399        1.000000        0.00000003        0.00000003        0.00000004        0.00000000
     210         -1.058798        1.000000        0.00000001        0.00000001        0.00000001        0.00000000
     211         -1.058498        1.000000        0.00000001        0.00000001        0.00000002        0.00000000
     212         -1.057049        1.000000        0.00000009        0.00000007        0.00000005        0.00000001
     213         -1.056896        1.000000        0.00000007        0.00000009        0.00000007        0.00000001
     214         -1.056403        1.000000        0.00000000        0.00000002        0.00000002        0.00000000
     215         -1.056079        1.000000        0.00000000        0.00000001        0.00000001        0.00000000
     216         -1.055624        1.000000        0.00000001        0.00000001        0.00000000        0.00000000
     217         -1.055288        1.000000        0.00000000        0.00000001        0.00000001        0.00000000
     218         -1.054828        1.000000        0.00000000        0.00000000        0.00000000        0.00000000
     219         -1.054413        1.000000        0.00000001        0.00000001        0.00000003        0.00000000
     220         -1.053990        1.000000        0.00000002        0.00000001        0.00000003        0.00000000
     221         -1.053598        1.000000        0.00000000        0.00000001        0.00000001        0.00000000
     222         -1.053387        1.000000        0.00000002        0.00000000        0.00000001        0.00000000
     223         -1.052953        1.000000        0.00000000        0.00000000        0.00000000        0.00000000
     224         -1.052779        1.000000        0.00000001        0.00000001        0.00000000        0.00000000
     225         -1.052376        1.000000        0.00000000        0.00000003        0.00000001        0.00000000
     226         -1.052297        1.000000        0.00000002        0.00000003        0.00000009        0.00000001
     227         -1.051819        1.000000        0.00000001        0.00000001        0.00000001        0.00000000
     228         -1.051536        1.000000        0.00000002        0.00000003        0.00000008        0.00000000
     229         -1.051232        1.000000        0.00000001        0.00000002        0.00000002        0.00000000
     230         -1.050581        1.000000        0.00000000        0.00000001        0.00000001        0.00000000
     231         -1.050140        1.000000        0.00000000        0.00000005        0.00000006        0.00000000
     232         -1.049834        1.000000        0.00000000        0.00000000        0.00000006        0.00000000
     233         -1.049588        1.000000        0.00000000        0.00000000        0.00000000        0.00000000
     234         -1.049506        1.000000        0.00000000        0.00000000        0.00000000        0.00000000
     235         -1.048565        1.000000        0.00000001        0.00000003        0.00000002        0.00000000
     236         -1.048103        1.000000        0.00000000        0.00000001        0.00000001        0.00000000
     237         -1.048023        1.000000        0.00000005        0.00000004        0.00000004        0.00000000
     238         -1.047651        1.000000        0.00000001        0.00000001        0.00000000        0.00000000
     239         -1.047305        1.000000        0.00000001        0.00000001        0.00000001        0.00000000
     240         -1.046707        1.000000        0.00000003        0.00000007        0.00000015        0.00000001
     241         -1.046592        1.000000        0.00000003        0.00000008        0.00000024        0.00000002
     242         -1.046281        1.000000        0.00000001        0.00000001        0.00000006        0.00000001
     243         -1.045974        1.000000        0.00000014        0.00000008        0.00000007        0.00000001
     244         -1.045866        1.000000        0.00000000        0.00000001        0.00000001        0.00000000
     245         -1.045771        1.000000        0.00000000        0.00000000        0.00000001        0.00000000
     246         -1.045301        1.000000        0.00000000        0.00000001        0.00000002        0.00000000
     247         -1.045020        1.000000        0.00000000        0.00000000        0.00000000        0.00000000
     248         -1.043956        1.000000        0.00000002        0.00000007        0.00000003        0.00000001
     249         -1.043818        1.000000        0.00000002        0.00000004        0.00000002        0.00000000
     250         -1.043244        1.000000        0.00000001        0.00000001        0.00000000        0.00000000
     251         -1.043119        1.000000        0.00000000        0.00000000        0.00000000        0.00000000
     252         -1.042993        1.000000        0.00000001        0.00000002        0.00000002        0.00000000
     253         -1.042515        1.000000        0.00000011        0.00000017        0.00000007        0.00000001
     254         -1.041302        1.000000        0.00000000        0.00000000        0.00000001        0.00000000
     255         -1.041116        1.000000        0.00000000        0.00000001        0.00000002        0.00000000
     256         -1.040594        1.000000        0.00000000        0.00000000        0.00000001        0.00000000
     257         -1.040094        1.000000        0.00000000        0.00000001        0.00000002        0.00000000
     258         -1.039599        1.000000        0.00000000        0.00000000        0.00000001        0.00000000
     259         -1.039408        1.000000        0.00000000        0.00000000        0.00000000        0.00000000