# Projected DOS for list 70 of 1 atoms, at iteration step i = 0, E(Fermi) =    -0.237583 a.u.
#     MO Eigenvalue [a.u.]      Occupation                 s                 p                 d
       1         -3.115895        1.000000        0.00000000        0.00000000        0.00000000
       2         -3.112717        1.000000        0.00000000        0.00000000        0.00000000
       3         -3.112103        1.000000        0.00000003        0.00000001        0.00000000
       4         -3.111180        1.000000        0.00000000        0.00000001        0.00000000
       5         -3.110810        1.000000        0.00000000        0.00000000        0.00000000
       6         -3.110575        1.000000        0.00000000        0.00000000        0.00000000
       7         -3.110067        1.000000        0.00000000        0.00000000        0.00000000
       8         -3.109817        1.000000        0.00000000        0.00000000        0.00000000
       9         -3.109660        1.000000        0.00000001        0.00000000        0.00000000
      10         -3.108831        1.000000        0.00000005        0.00000000        0.00000000
      11         -3.108678        1.000000        0.00000000        0.00000000        0.00000000
      12         -3.108578        1.000000        0.00000000        0.00000001        0.00000000
      13         -3.108350        1.000000        0.00000000        0.00000002        0.00000000
      14         -3.108163        1.000000        0.00000000        0.00000000        0.00000000
      15         -3.107948        1.000000        0.00000000        0.00000001        0.00000000
      16         -3.107865        1.000000        0.00000000        0.00000000        0.00000000
      17         -3.107703        1.000000        0.00000000        0.00000000        0.00000000
      18         -3.107683        1.000000        0.00000000        0.00000000        0.00000000
      19         -3.107641        1.000000        0.00000000        0.00000000        0.00000000
      20         -3.107604        1.000000        0.00000000        0.00000000        0.00000000
      21         -3.107402        1.000000        0.00000000        0.00000000        0.00000000
      22         -3.107115        1.000000        0.00000000        0.00000000        0.00000000
      23         -3.107013        1.000000        0.00000000        0.00000000        0.00000000
      24         -3.106750        1.000000        0.00000000        0.00000000        0.00000000
      25         -3.106619        1.000000        0.00000000        0.00000000        0.00000000
      26         -3.106567        1.000000        0.00000000        0.00000000        0.00000000
      27         -3.106546        1.000000        0.00000000        0.00000000        0.00000000
      28         -3.106258        1.000000        0.00000000        0.00000000        0.00000000
      29         -3.106103        1.000000        0.00000000        0.00000000        0.00000000
      30         -3.104674        1.000000        0.00000000        0.00000000        0.00000000
      31         -1.775522        1.000000        0.00000000        0.00000000        0.00000000
      32         -1.773964        1.000000        0.00000000        0.00000000        0.00000000
      33         -1.773454        1.000000        0.00000000        0.00000000        0.00000000
      34         -1.773008        1.000000        0.00000000        0.00000000        0.00000000
      35         -1.772581        1.000000        0.00000000        0.00000000        0.00000000
      36         -1.772213        1.000000        0.00000000        0.00000000        0.00000000
      37         -1.771852        1.000000        0.00000000        0.00000000        0.00000000
      38         -1.771444        1.000000        0.00000000        0.00000000        0.00000000
      39         -1.771233        1.000000        0.00000000        0.00000000        0.00000000
      40         -1.770977        1.000000        0.00000000        0.00000000        0.00000000
      41         -1.770760        1.000000        0.00000000        0.00000000        0.00000000
      42         -1.770111        1.000000        0.00000000        0.00000000        0.00000000
      43         -1.770034        1.000000        0.00000000        0.00000000        0.00000000
      44         -1.769495        1.000000        0.00000000        0.00000000        0.00000000
      45         -1.769421        1.000000        0.00000000        0.00000000        0.00000000
      46         -1.769063        1.000000        0.00000000        0.00000000        0.00000000
      47         -1.768532        1.000000        0.00000000        0.00000000        0.00000000
      48         -1.768412        1.000000        0.00000000        0.00000000        0.00000000
      49         -1.767811        1.000000        0.00000000        0.00000000        0.00000000
      50         -1.767614        1.000000        0.00000000        0.00000000        0.00000000
      51         -1.767477        1.000000        0.00000000        0.00000000        0.00000000
      52         -1.765531        1.000000        0.00000000        0.00000000        0.00000000
      53         -1.765088        1.000000        0.00000000        0.00000000        0.00000000
      54         -1.764557        1.000000        0.00000000        0.00000000        0.00000000
      55         -1.763772        1.000000        0.00000000        0.00000000        0.00000000
      56         -1.763328        1.000000        0.00000000        0.00000000        0.00000000
      57         -1.762925        1.000000        0.00000000        0.00000000        0.00000000
      58         -1.762506        1.000000        0.00000000        0.00000000        0.00000000
      59         -1.762119        1.000000        0.00000000        0.00000000        0.00000000
      60         -1.762053        1.000000        0.00000000        0.00000000        0.00000000
      61         -1.761895        1.000000        0.00000000        0.00000000        0.00000000
      62         -1.761602        1.000000        0.00000000        0.00000000        0.00000000
      63         -1.761509        1.000000        0.00000000        0.00000000        0.00000000
      64         -1.761377        1.000000        0.00000000        0.00000000        0.00000000
      65         -1.761171        1.000000        0.00000000        0.00000000        0.00000000
      66         -1.760998        1.000000        0.00000000        0.00000000        0.00000000
      67         -1.760877        1.000000        0.00000000        0.00000000        0.00000000
      68         -1.760806        1.000000        0.00000000        0.00000000        0.00000000
      69         -1.760684        1.000000        0.00000000        0.00000000        0.00000000
      70         -1.760645        1.000000        0.00000000        0.00000000        0.00000000
      71         -1.760442        1.000000        0.00000000        0.00000000        0.00000000
      72         -1.760098        1.000000        0.00000000        0.00000000        0.00000000
      73         -1.759962        1.000000        0.00000000        0.00000000        0.00000000
      74         -1.759824        1.000000        0.00000000        0.00000000        0.00000000
      75         -1.759787        1.000000        0.00000000        0.00000000        0.00000000
      76         -1.759638        1.000000        0.00000000        0.00000000        0.00000000
      77         -1.759601        1.000000        0.00000000        0.00000000        0.00000000
      78         -1.759512        1.000000        0.00000000        0.00000000        0.00000000
      79         -1.759406        1.000000        0.00000000        0.00000000        0.00000000
      80         -1.759287        1.000000        0.00000000        0.00000000        0.00000000
      81         -1.759176        1.000000        0.00000000        0.00000000        0.00000000
      82         -1.758872        1.000000        0.00000000        0.00000000        0.00000000
      83         -1.758781        1.000000        0.00000000        0.00000000        0.00000000
      84         -1.758726        1.000000        0.00000000        0.00000000        0.00000000
      85         -1.758559        1.000000        0.00000000        0.00000000        0.00000000
      86         -1.758378        1.000000        0.00000000        0.00000000        0.00000000
      87         -1.758294        1.000000        0.00000000        0.00000000        0.00000000
      88         -1.758087        1.000000        0.00000000        0.00000000        0.00000000
      89         -1.757987        1.000000        0.00000000        0.00000000        0.00000000
      90         -1.757734        1.000000        0.00000000        0.00000000        0.00000000
      91         -1.757649        1.000000        0.00000000        0.00000000        0.00000000
      92         -1.757529        1.000000        0.00000000        0.00000000        0.00000000
      93         -1.757404        1.000000        0.00000000        0.00000000        0.00000000
      94         -1.757324        1.000000        0.00000000        0.00000000        0.00000000
      95         -1.757187        1.000000        0.00000000        0.00000000        0.00000000
      96         -1.757137        1.000000        0.00000000        0.00000000        0.00000000
      97         -1.756770        1.000000        0.00000000        0.00000000        0.00000000
      98         -1.756598        1.000000        0.00000000        0.00000000        0.00000000
      99         -1.756513        1.000000        0.00000000        0.00000000        0.00000000
     100         -1.756186        1.000000        0.00000000        0.00000000        0.00000000
     101         -1.755847        1.000000        0.00000000        0.00000000        0.00000000
     102         -1.755716        1.000000        0.00000000        0.00000000        0.00000000
     103         -1.755306        1.000000        0.00000000        0.00000000        0.00000000
     104         -1.755052        1.000000        0.00000000        0.00000000        0.00000000
     105         -1.754765        1.000000        0.00000000        0.00000000        0.00000000
     106         -1.754094        1.000000        0.00000000        0.00000000        0.00000000
     107         -1.753681        1.000000        0.00000000        0.00000000        0.00000000
     108         -1.753548        1.000000        0.00000000        0.00000000        0.00000000
     109         -1.753256        1.000000        0.00000000        0.00000000        0.00000000
     110         -1.752675        1.000000        0.00000000        0.00000000        0.00000000
     111         -1.752502        1.000000        0.00000000        0.00000000        0.00000000
     112         -1.752253        1.000000        0.00000000        0.00000000        0.00000000
     113         -1.751643        1.000000        0.00000000        0.00000000        0.00000000
     114         -1.751317        1.000000        0.00000000        0.00000000        0.00000000
     115         -1.749193        1.000000        0.00000000        0.00000000        0.00000000
     116         -1.748137        1.000000        0.00000000        0.00000000        0.00000000
     117         -1.747283        1.000000        0.00000000        0.00000000        0.00000000
     118         -1.745962        1.000000        0.00000000        0.00000000        0.00000000
     119         -1.745880        1.000000        0.00000000        0.00000000        0.00000000
     120         -1.744143        1.000000        0.00000000        0.00000000        0.00000000
     121         -1.145318        1.000000        0.00035858        0.00001520        0.00000901
     122         -1.141162        1.000000        0.00000062        0.00000897        0.00000025
     123         -1.135518        1.000000        0.03461338        0.00103283        0.00062295
     124         -1.134356        1.000000        0.00098561        0.00004452        0.00002387
     125         -1.132797        1.000000        0.00257866        0.00016729        0.00004633
     126         -1.131675        1.000000        0.00871069        0.00048707        0.00015922
     127         -1.130657        1.000000        0.00051358        0.00029253        0.00001287
     128         -1.129329        1.000000        0.00005279        0.00146669        0.00006704
     129         -1.127805        1.000000        0.02105159        0.00093928        0.00044331
     130         -1.126970        1.000000        0.01347152        0.00054906        0.00022368
     131         -1.125100        1.000000        0.01439943        0.00156084        0.00025969
     132         -1.124640        1.000000        0.00000689        0.00041798        0.00001522
     133         -1.122028        1.000000        0.00000425        0.00069614        0.00001943
     134         -1.120887        1.000000        0.00839917        0.00057854        0.00010195
     135         -1.119308        1.000000        0.00001617        0.00007771        0.00001359
     136         -1.118408        1.000000        0.00533637        0.00023951        0.00006563
     137         -1.117769        1.000000        0.00003482        0.00002028        0.00001409
     138         -1.116570        1.000000        0.01504916        0.00140513        0.00019261
     139         -1.115096        1.000000        0.00003891        0.00005355        0.00000190
     140         -1.114402        1.000000        0.00095268        0.00010910        0.00003760
     141         -1.114039        1.000000        0.00235344        0.00025758        0.00002708
     142         -1.112381        1.000000        0.00008780        0.00006603        0.00005470
     143         -1.111588        1.000000        0.00039190        0.00017021        0.00005635
     144         -1.111356        1.000000        0.00663138        0.00032402        0.00006798
     145         -1.110913        1.000000        0.00226173        0.00029092        0.00005319
     146         -1.109631        1.000000        0.00006567        0.00124165        0.00004967
     147         -1.107338        1.000000        0.00154997        0.00004729        0.00001593
     148         -1.107163        1.000000        0.00396674        0.00005156        0.00007172
     149         -1.106911        1.000000        0.00131142        0.00024315        0.00002672
     150         -1.105904        1.000000        0.00076079        0.00057225        0.00002446
     151         -1.104513        1.000000        0.00149169        0.00003387        0.00001884
     152         -1.103753        1.000000        0.00026733        0.00000780        0.00001447
     153         -1.103233        1.000000        0.00295399        0.00116629        0.00004536
     154         -1.101116        1.000000        0.00300529        0.00217042        0.00003404
     155         -1.099878        1.000000        0.00055534        0.00009100        0.00009864
     156         -1.099527        1.000000        0.00108878        0.00001155        0.00001541
     157         -1.099360        1.000000        0.00000447        0.00001801        0.00001517
     158         -1.097449        1.000000        0.01897324        0.00020012        0.00014608
     159         -1.097246        1.000000        0.00596336        0.00071603        0.00004322
     160         -1.096336        1.000000        0.00535791        0.00011391        0.00003056
     161         -1.095776        1.000000        0.00001293        0.00000669        0.00000404
     162         -1.094258        1.000000        0.00482788        0.00010086        0.00008667
     163         -1.093701        1.000000        0.00274878        0.00035176        0.00002415
     164         -1.093107        1.000000        0.00027252        0.00010246        0.00000816
     165         -1.091600        1.000000        0.00061000        0.00002053        0.00001097
     166         -1.090890        1.000000        0.00679632        0.00074646        0.00003864
     167         -1.090283        1.000000        0.00133802        0.00011180        0.00001994
     168         -1.089378        1.000000        0.00071701        0.00009223        0.00000808
     169         -1.088506        1.000000        0.01061616        0.00016738        0.00004002
     170         -1.086931        1.000000        0.00688032        0.00023725        0.00004196
     171         -1.086367        1.000000        0.00143929        0.00014072        0.00001072
     172         -1.085327        1.000000        0.00010190        0.00058430        0.00005471
     173         -1.084766        1.000000        0.00021610        0.00025224        0.00001543
     174         -1.083961        1.000000        0.00063960        0.00002203        0.00002807
     175         -1.082920        1.000000        0.00009772        0.00004655        0.00000280
     176         -1.081700        1.000000        0.00198661        0.00007060        0.00003135
     177         -1.081031        1.000000        0.00146871        0.00005456        0.00002180
     178         -1.080558        1.000000        0.00449958        0.00022001        0.00009724
     179         -1.080415        1.000000        0.00205176        0.00111094        0.00004999
     180         -1.080047        1.000000        0.00049641        0.00038152        0.00002313
     181         -1.077309        1.000000        0.00355583        0.00010486        0.00003237
     182         -1.076601        1.000000        0.00042913        0.00001573        0.00001317
     183         -1.076342        1.000000        0.00353408        0.00004096        0.00000726
     184         -1.076154        1.000000        0.00294019        0.00005353        0.00000802
     185         -1.075469        1.000000        0.01651146        0.00012693        0.00003262
     186         -1.074904        1.000000        0.00186118        0.00015456        0.00000972
     187         -1.074160        1.000000        0.00242709        0.00002421        0.00000359
     188         -1.073364        1.000000        0.01371921        0.00013494        0.00008274
     189         -1.071841        1.000000        0.02096401        0.00019004        0.00006677
     190         -1.071436        1.000000        0.00381724        0.00007787        0.00000823
     191         -1.070358        1.000000        0.00624404        0.00009216        0.00001686
     192         -1.070160        1.000000        0.00042396        0.00004796        0.00001901
     193         -1.069551        1.000000        0.04309024        0.00053971        0.00016903
     194         -1.069042        1.000000        0.00291039        0.00016892        0.00003208
     195         -1.068018        1.000000        0.00000593        0.00013653        0.00008590
     196         -1.067683        1.000000        0.01020203        0.00011791        0.00005302
     197         -1.067094        1.000000        0.01662718        0.00013618        0.00003948
     198         -1.066200        1.000000        0.00299679        0.00005574        0.00001843
     199         -1.065105        1.000000        0.00531707        0.00007234        0.00001851
     200         -1.064600        1.000000        0.01053198        0.00013243        0.00002389
     201         -1.063825        1.000000        0.00371805        0.00009935        0.00003806
     202         -1.063672        1.000000        0.00163434        0.00003331        0.00000942
     203         -1.062915        1.000000        0.00056483        0.00017581        0.00004024
     204         -1.062259        1.000000        0.00227056        0.00003689        0.00000351
     205         -1.061986        1.000000        0.00074659        0.00012370        0.00002506
     206         -1.060822        1.000000        0.01046484        0.00010361        0.00000489
     207         -1.060230        1.000000        0.00205242        0.00011562        0.00012248
     208         -1.059971        1.000000        0.00374974        0.00003787        0.00004011
     209         -1.059399        1.000000        0.00406788        0.00005260        0.00000636
     210         -1.058798        1.000000        0.00000641        0.00009014        0.00002214
     211         -1.058498        1.000000        0.00113428        0.00023904        0.00004219
     212         -1.057049        1.000000        0.02091706        0.00024445        0.00003961
     213         -1.056896        1.000000        0.00136428        0.00004075        0.00000317
     214         -1.056403        1.000000        0.01274505        0.00015299        0.00001204
     215         -1.056079        1.000000        0.00001032        0.00000194        0.00000148
     216         -1.055624        1.000000        0.00034429        0.00005370        0.00000965
     217         -1.055288        1.000000        0.00102927        0.00012017        0.00002803
     218         -1.054828        1.000000        0.00741948        0.00039904        0.00010000
     219         -1.054413        1.000000        0.01271190        0.00058481        0.00014658
     220         -1.053990        1.000000        0.00017455        0.00001921        0.00000817
     221         -1.053598        1.000000        0.00058328        0.00002530        0.00000916
     222         -1.053387        1.000000        0.00076402        0.00008109        0.00000301
     223         -1.052953        1.000000        0.00008432        0.00003213        0.00000694
     224         -1.052779        1.000000        0.00552132        0.00010522        0.00002830
     225         -1.052376        1.000000        0.00004982        0.00000098        0.00000659
     226         -1.052297        1.000000        0.00039177        0.00006207        0.00001551
     227         -1.051819        1.000000        0.00243661        0.00009900        0.00003028
     228         -1.051536        1.000000        0.00284629        0.00002729        0.00003492
     229         -1.051232        1.000000        0.00000056        0.00000090        0.00000560
     230         -1.050581        1.000000        0.00114414        0.00005056        0.00001098
     231         -1.050140        1.000000        0.00124984        0.00003615        0.00001771
     232         -1.049834        1.000000        0.00090652        0.00000616        0.00000440
     233         -1.049588        1.000000        0.00031025        0.00001153        0.00000393
     234         -1.049506        1.000000        0.00012371        0.00000298        0.00000139
     235         -1.048565        1.000000        0.00893698        0.00017956        0.00005285
     236         -1.048103        1.000000        0.00137292        0.00002924        0.00001854
     237         -1.048023        1.000000        0.00032779        0.00003547        0.00001826
     238         -1.047651        1.000000        0.00095529        0.00002859        0.00000399
     239         -1.047305        1.000000        0.00129365        0.00005097        0.00001543
     240         -1.046707        1.000000        0.00473434        0.00023647        0.00008983
     241         -1.046592        1.000000        0.00964262        0.00053457        0.00016918
     242         -1.046281        1.000000        0.00306353        0.00023501        0.00007497
     243         -1.045974        1.000000        0.00180719        0.00054178        0.00022355
     244         -1.045866        1.000000        0.00021852        0.00001847        0.00000416
     245         -1.045771        1.000000        0.00096800        0.00003349        0.00001405
     246         -1.045301        1.000000        0.00086790        0.00002500        0.00001553
     247         -1.045020        1.000000        0.00097467        0.00007895        0.00004161
     248         -1.043956        1.000000        0.00446215        0.00018864        0.00013860
     249         -1.043818        1.000000        0.00241696        0.00009713        0.00006295
     250         -1.043244        1.000000        0.00001279        0.00001730        0.00002069
     251         -1.043119        1.000000        0.00035750        0.00000902        0.00000524
     252         -1.042993        1.000000        0.00265637        0.00005251        0.00002744
     253         -1.042515        1.000000        0.00640002        0.00042235        0.00022441
     254         -1.041302        1.000000        0.00005868        0.00000419        0.00000253
     255         -1.041116        1.000000        0.00032564        0.00001289        0.00000305
     256         -1.040594        1.000000        0.00008146        0.00002541        0.00001030
     257         -1.040094        1.000000        0.00041716        0.00003534        0.00001005
     258         -1.039599        1.000000        0.00007124        0.00003395        0.00001432
     259         -1.039408        1.000000        0.00000032        0.00000957        0.00000259
     260         -1.038970        1.000000        0.00000130        0.00000373        0.00000537
     261         -1.038561        1.000000        0.00000105        0.00000023        0.00000128
     262         -1.038022        1.000000        0.00002365        0.00000211        0.00000274
     263         -1.037841        1.000000        0.00000289        0.00001657        0.00001849
     264         -1.036991        1.000000        0.00005637        0.00000725        0.00000289
     265         -1.036854        1.000000        0.00006810        0.00000239        0.00000261
     266         -1.035910        1.000000        0.00000453        0.00000033        0.00000006
     267         -1.035115        1.000000        0.00011652        0.00000712        0.00000324
     268         -1.034275        1.000000        0.00002675        0.00000297        0.00000192
     269         -1.033697        1.000000        0.00000046        0.00000024        0.00000061
     270         -1.033444        1.000000        0.00003419        0.00000796        0.00000079
     271         -1.033385        1.000000        0.00004342        0.00000533        0.00000112
     272         -1.033262        1.000000        0.00000504        0.00000074        0.00000022
     273         -1.032346        1.000000        0.00003849        0.00001188        0.00000173
     274         -1.031626        1.000000        0.00000093        0.00000016        0.00000002
     275         -1.030746        1.000000        0.00000000        0.00000000        0.00000001
     276         -1.029780        1.000000        0.00001027        0.00000143        0.00000010
     277         -1.028980        1.000000        0.00000972        0.00000156        0.00000014
     278         -1.027492        1.000000        0.00002483        0.00000715        0.00000221
     279         -1.025795        1.000000        0.00000063        0.00000019        0.00000006
     280         -1.023990        1.000000        0.00000025        0.00000059        0.00000061
     281         -1.022755        1.000000        0.00000000        0.00000000        0.00000000
     282         -1.019871        1.000000        0.00000089        0.00000019        0.00000010
     283         -1.017737        1.000000        0.00000047        0.00000011        0.00000011
     284         -1.012409        1.000000        0.00000011        0.00000014        0.00000002
     285         -1.010522        1.000000        0.00000000        0.00000000        0.00000000
     286         -0.880961        1.000000        0.00000008        0.00000004        0.00000000
     287         -0.861761        1.000000        0.00000001        0.00000001        0.00000000
     288         -0.860652        1.000000        0.00000003        0.00000004        0.00000000
     289         -0.854811        1.000000        0.00000000        0.00000002        0.00000000
     290         -0.853189        1.000000        0.00000000        0.00000007        0.00000001
     291         -0.838407        1.000000        0.00000000        0.00000000        0.00000000
     292         -0.837131        1.000000        0.00000001        0.00000000        0.00000000
     293         -0.835422        1.000000        0.00000000        0.00000005        0.00000000
     294         -0.832873        1.000000        0.00000000        0.00000004        0.00000000
     295         -0.813092        1.000000        0.00000000        0.00000000        0.00000000
     296         -0.811309        1.000000        0.00000000        0.00000002        0.00000000
     297         -0.805633        1.000000        0.00000009        0.00000005        0.00000000
     298         -0.800994        1.000000        0.00000000        0.00000001        0.00000000
     299         -0.798544        1.000000        0.00000004        0.00000005        0.00000000
     300         -0.797176        1.000000        0.00000000        0.00000001        0.00000000
     301         -0.796065        1.000000        0.00000000        0.00000000        0.00000000
     302         -0.795247        1.000000        0.00000000        0.00000001        0.00000000
     303         -0.794465        1.000000        0.00000000        0.00000001        0.00000000
     304         -0.792558        1.000000        0.00000000        0.00000001        0.00000000
     305         -0.791532        1.000000        0.00000000        0.00000000        0.00000000
     306         -0.790931        1.000000        0.00000001        0.00000003        0.00000001
     307         -0.790366        1.000000        0.00000000        0.00000012        0.00000000