# Projected DOS for list 313 of 1 atoms, at iteration step i = 0, E(Fermi) =    -0.237583 a.u.
#     MO Eigenvalue [a.u.]      Occupation                 s                 p                 d
       1         -3.115895        1.000000        0.00000002        0.00000038        0.00000006
       2         -3.112717        1.000000        0.00002574        0.00010399        0.00001091
       3         -3.112103        1.000000        0.00000003        0.00000049        0.00000003
       4         -3.111180        1.000000        0.00000017        0.00000067        0.00000014
       5         -3.110810        1.000000        0.00000022        0.00000009        0.00000010
       6         -3.110575        1.000000        0.00000198        0.00000628        0.00000083
       7         -3.110067        1.000000        0.00009516        0.00014380        0.00000836
       8         -3.109817        1.000000        0.00302311        0.00469630        0.00023376
       9         -3.109660        1.000000        0.00000097        0.00000082        0.00000021
      10         -3.108831        1.000000        0.00011413        0.00032828        0.00004375
      11         -3.108678        1.000000        0.00000264        0.00001440        0.00000352
      12         -3.108578        1.000000        0.00000277        0.00001422        0.00000320
      13         -3.108350        1.000000        0.00048544        0.00088361        0.00009138
      14         -3.108163        1.000000        0.00101632        0.00314503        0.00040340
      15         -3.107948        1.000000        0.00134324        0.00225587        0.00019589
      16         -3.107865        1.000000        0.00002900        0.00007569        0.00001077
      17         -3.107703        1.000000        0.00000016        0.00003781        0.00000447
      18         -3.107683        1.000000        0.00002788        0.00010588        0.00000997
      19         -3.107641        1.000000        0.00005584        0.00038051        0.00004719
      20         -3.107604        1.000000        0.00004161        0.00009621        0.00001806
      21         -3.107402        1.000000        0.00001185        0.00164015        0.00028546
      22         -3.107115        1.000000        0.00024618        0.00134480        0.00019993
      23         -3.107013        1.000000        0.00092914        0.00272274        0.00029499
      24         -3.106750        1.000000        0.00006431        0.00013596        0.00000400
      25         -3.106619        1.000000        0.00001096        0.00071880        0.00011359
      26         -3.106567        1.000000        0.00004591        0.00017822        0.00002955
      27         -3.106546        1.000000        0.00001108        0.00005783        0.00001046
      28         -3.106258        1.000000        0.00019668        0.00118739        0.00016186
      29         -3.106103        1.000000        0.00029747        0.00118523        0.00017810
      30         -3.104674        1.000000        0.00000189        0.00000963        0.00000116
      31         -1.775522        1.000000        0.00006359        0.00017092        0.00001327
      32         -1.773964        1.000000        0.00014334        0.00036780        0.00001761
      33         -1.773454        1.000000        0.00000745        0.00003546        0.00000762
      34         -1.773008        1.000000        0.00002795        0.00011991        0.00002615
      35         -1.772581        1.000000        0.00003390        0.00008696        0.00000713
      36         -1.772213        1.000000        0.00008948        0.00030349        0.00004386
      37         -1.771852        1.000000        0.00000035        0.00002506        0.00000883
      38         -1.771444        1.000000        0.00044786        0.00106913        0.00005995
      39         -1.771233        1.000000        0.00007254        0.00031783        0.00007980
      40         -1.770977        1.000000        0.00005593        0.00024110        0.00007081
      41         -1.770760        1.000000        0.00069233        0.00171964        0.00010882
      42         -1.770111        1.000000        0.00005933        0.00015941        0.00001073
      43         -1.770034        1.000000        0.00006717        0.00014464        0.00000868
      44         -1.769495        1.000000        0.00000104        0.00004718        0.00001753
      45         -1.769421        1.000000        0.00000068        0.00004837        0.00003825
      46         -1.769063        1.000000        0.00026282        0.00080015        0.00009207
      47         -1.768532        1.000000        0.00008952        0.00023138        0.00002313
      48         -1.768412        1.000000        0.00005661        0.00030603        0.00008564
      49         -1.767811        1.000000        0.00001656        0.00014041        0.00004821
      50         -1.767614        1.000000        0.00026658        0.00090109        0.00021563
      51         -1.767477        1.000000        0.00008165        0.00027138        0.00004798
      52         -1.765531        1.000000        0.00000445        0.00009202        0.00004778
      53         -1.765088        1.000000        0.00000016        0.00000948        0.00000729
      54         -1.764557        1.000000        0.00004662        0.00016961        0.00004265
      55         -1.763772        1.000000        0.00001826        0.00002735        0.00000109
      56         -1.763328        1.000000        0.00005544        0.00011840        0.00000756
      57         -1.762925        1.000000        0.00030376        0.00043914        0.00000990
      58         -1.762506        1.000000        0.00001319        0.00010689        0.00003190
      59         -1.762119        1.000000        0.00008813        0.00014336        0.00000331
      60         -1.762053        1.000000        0.00001941        0.00004003        0.00001079
      61         -1.761895        1.000000        0.00003636        0.00042965        0.00014520
      62         -1.761602        1.000000        0.00007535        0.00016629        0.00002874
      63         -1.761509        1.000000        0.00037747        0.00067716        0.00003069
      64         -1.761377        1.000000        0.00007453        0.00028196        0.00006464
      65         -1.761171        1.000000        0.00018587        0.00044646        0.00003341
      66         -1.760998        1.000000        0.00007827        0.00018517        0.00002479
      67         -1.760877        1.000000        0.00010593        0.00027549        0.00005219
      68         -1.760806        1.000000        0.00010146        0.00026935        0.00004389
      69         -1.760684        1.000000        0.00001323        0.00005435        0.00001604
      70         -1.760645        1.000000        0.00000742        0.00007508        0.00004014
      71         -1.760442        1.000000        0.00000166        0.00025467        0.00010024
      72         -1.760098        1.000000        0.00001041        0.00005959        0.00000508
      73         -1.759962        1.000000        0.00007166        0.00022084        0.00003795
      74         -1.759824        1.000000        0.00002846        0.00096065        0.00043776
      75         -1.759787        1.000000        0.00006100        0.00011522        0.00000990
      76         -1.759638        1.000000        0.00008230        0.00020538        0.00003757
      77         -1.759601        1.000000        0.00021163        0.00033491        0.00002620
      78         -1.759512        1.000000        0.00000035        0.00003135        0.00001771
      79         -1.759406        1.000000        0.00013263        0.00073561        0.00025658
      80         -1.759287        1.000000        0.00000683        0.00009321        0.00003845
      81         -1.759176        1.000000        0.00000094        0.00008250        0.00002986
      82         -1.758872        1.000000        0.00002259        0.00023179        0.00008240
      83         -1.758781        1.000000        0.00004662        0.00032526        0.00014512
      84         -1.758726        1.000000        0.00002237        0.00041514        0.00018265
      85         -1.758559        1.000000        0.00006588        0.00026354        0.00004989
      86         -1.758378        1.000000        0.00006801        0.00066750        0.00024954
      87         -1.758294        1.000000        0.00001107        0.00017012        0.00005630
      88         -1.758087        1.000000        0.00005293        0.00067418        0.00026562
      89         -1.757987        1.000000        0.00005881        0.00015461        0.00003128
      90         -1.757734        1.000000        0.00003398        0.00046713        0.00020007
      91         -1.757649        1.000000        0.00000459        0.00019213        0.00010512
      92         -1.757529        1.000000        0.00002476        0.00134162        0.00054587
      93         -1.757404        1.000000        0.00001656        0.00069800        0.00030252
      94         -1.757324        1.000000        0.00000866        0.00009173        0.00004120
      95         -1.757187        1.000000        0.00000059        0.00009173        0.00004636
      96         -1.757137        1.000000        0.00002194        0.00016527        0.00006865
      97         -1.756770        1.000000        0.00006356        0.00038577        0.00016293
      98         -1.756598        1.000000        0.00002209        0.00033071        0.00009621
      99         -1.756513        1.000000        0.00002929        0.00045844        0.00020118
     100         -1.756186        1.000000        0.00000210        0.00002371        0.00003734
     101         -1.755847        1.000000        0.00003018        0.00013106        0.00003284
     102         -1.755716        1.000000        0.00002180        0.00026125        0.00014461
     103         -1.755306        1.000000        0.00008943        0.00022237        0.00004559
     104         -1.755052        1.000000        0.00000030        0.00017896        0.00010141
     105         -1.754765        1.000000        0.00000257        0.00010157        0.00004674
     106         -1.754094        1.000000        0.00000472        0.00008352        0.00007041
     107         -1.753681        1.000000        0.00000067        0.00001293        0.00000533
     108         -1.753548        1.000000        0.00001956        0.00036091        0.00023169
     109         -1.753256        1.000000        0.00000014        0.00002659        0.00002504
     110         -1.752675        1.000000        0.00011103        0.00053694        0.00020493
     111         -1.752502        1.000000        0.00003078        0.00010789        0.00008262
     112         -1.752253        1.000000        0.00000118        0.00005412        0.00006160
     113         -1.751643        1.000000        0.00000547        0.00003128        0.00003279
     114         -1.751317        1.000000        0.00008161        0.00053827        0.00025057
     115         -1.749193        1.000000        0.00000066        0.00000671        0.00000180
     116         -1.748137        1.000000        0.00000165        0.00004202        0.00001144
     117         -1.747283        1.000000        0.00000787        0.00016304        0.00006591
     118         -1.745962        1.000000        0.00000065        0.00003727        0.00000872
     119         -1.745880        1.000000        0.00000246        0.00006767        0.00004435
     120         -1.744143        1.000000        0.00000968        0.00037302        0.00025651
     121         -1.145318        1.000000        0.00000002        0.00000002        0.00000000
     122         -1.141162        1.000000        0.00000002        0.00000002        0.00000000
     123         -1.135518        1.000000        0.00000026        0.00000034        0.00000002
     124         -1.134356        1.000000        0.00000006        0.00000004        0.00000000
     125         -1.132797        1.000000        0.00000004        0.00000003        0.00000000
     126         -1.131675        1.000000        0.00000006        0.00000007        0.00000000
     127         -1.130657        1.000000        0.00000001        0.00000002        0.00000000
     128         -1.129329        1.000000        0.00000000        0.00000000        0.00000000
     129         -1.127805        1.000000        0.00000001        0.00000002        0.00000000
     130         -1.126970        1.000000        0.00000002        0.00000004        0.00000000
     131         -1.125100        1.000000        0.00000027        0.00000028        0.00000001
     132         -1.124640        1.000000        0.00000000        0.00000000        0.00000000
     133         -1.122028        1.000000        0.00000005        0.00000005        0.00000000
     134         -1.120887        1.000000        0.00000003        0.00000002        0.00000000
     135         -1.119308        1.000000        0.00000009        0.00000004        0.00000000
     136         -1.118408        1.000000        0.00000000        0.00000000        0.00000000
     137         -1.117769        1.000000        0.00000002        0.00000002        0.00000000
     138         -1.116570        1.000000        0.00000007        0.00000006        0.00000001
     139         -1.115096        1.000000        0.00000003        0.00000003        0.00000000
     140         -1.114402        1.000000        0.00000001        0.00000004        0.00000000
     141         -1.114039        1.000000        0.00000001        0.00000001        0.00000000
     142         -1.112381        1.000000        0.00000002        0.00000005        0.00000000
     143         -1.111588        1.000000        0.00000001        0.00000001        0.00000000
     144         -1.111356        1.000000        0.00000008        0.00000013        0.00000001
     145         -1.110913        1.000000        0.00000001        0.00000000        0.00000000
     146         -1.109631        1.000000        0.00000001        0.00000005        0.00000000
     147         -1.107338        1.000000        0.00000001        0.00000002        0.00000000
     148         -1.107163        1.000000        0.00000000        0.00000002        0.00000000
     149         -1.106911        1.000000        0.00000006        0.00000006        0.00000001
     150         -1.105904        1.000000        0.00000001        0.00000001        0.00000000
     151         -1.104513        1.000000        0.00000005        0.00000013        0.00000004
     152         -1.103753        1.000000        0.00000009        0.00000036        0.00000010
     153         -1.103233        1.000000        0.00000000        0.00000000        0.00000000
     154         -1.101116        1.000000        0.00000000        0.00000003        0.00000000
     155         -1.099878        1.000000        0.00000004        0.00000010        0.00000001
     156         -1.099527        1.000000        0.00000002        0.00000011        0.00000002
     157         -1.099360        1.000000        0.00000001        0.00000003        0.00000000
     158         -1.097449        1.000000        0.00000000        0.00000001        0.00000000
     159         -1.097246        1.000000        0.00000000        0.00000001        0.00000000
     160         -1.096336        1.000000        0.00000001        0.00000000        0.00000000
     161         -1.095776        1.000000        0.00000000        0.00000000        0.00000000
     162         -1.094258        1.000000        0.00000002        0.00000014        0.00000001
     163         -1.093701        1.000000        0.00000000        0.00000001        0.00000000
     164         -1.093107        1.000000        0.00000000        0.00000001        0.00000000
     165         -1.091600        1.000000        0.00000000        0.00000001        0.00000000
     166         -1.090890        1.000000        0.00000005        0.00000007        0.00000000
     167         -1.090283        1.000000        0.00000000        0.00000000        0.00000000
     168         -1.089378        1.000000        0.00000000        0.00000002        0.00000000
     169         -1.088506        1.000000        0.00000001        0.00000001        0.00000000
     170         -1.086931        1.000000        0.00000001        0.00000002        0.00000000
     171         -1.086367        1.000000        0.00000000        0.00000004        0.00000000
     172         -1.085327        1.000000        0.00000000        0.00000003        0.00000000
     173         -1.084766        1.000000        0.00000001        0.00000000        0.00000000
     174         -1.083961        1.000000        0.00000000        0.00000000        0.00000000
     175         -1.082920        1.000000        0.00000002        0.00000001        0.00000000
     176         -1.081700        1.000000        0.00000001        0.00000002        0.00000000
     177         -1.081031        1.000000        0.00000000        0.00000006        0.00000000
     178         -1.080558        1.000000        0.00000001        0.00000002        0.00000000
     179         -1.080415        1.000000        0.00000012        0.00000012        0.00000001
     180         -1.080047        1.000000        0.00000001        0.00000001        0.00000000
     181         -1.077309        1.000000        0.00000037        0.00000009        0.00000001
     182         -1.076601        1.000000        0.00000000        0.00000001        0.00000000
     183         -1.076342        1.000000        0.00000001        0.00000005        0.00000000
     184         -1.076154        1.000000        0.00000000        0.00000011        0.00000000
     185         -1.075469        1.000000        0.00000003        0.00000008        0.00000001
     186         -1.074904        1.000000        0.00000000        0.00000000        0.00000000
     187         -1.074160        1.000000        0.00000002        0.00000004        0.00000000
     188         -1.073364        1.000000        0.00000001        0.00000002        0.00000000
     189         -1.071841        1.000000        0.00000009        0.00000012        0.00000001
     190         -1.071436        1.000000        0.00000007        0.00000002        0.00000000
     191         -1.070358        1.000000        0.00000030        0.00000008        0.00000001
     192         -1.070160        1.000000        0.00000035        0.00000027        0.00000002
     193         -1.069551        1.000000        0.00000011        0.00000006        0.00000001
     194         -1.069042        1.000000        0.00000000        0.00000000        0.00000000
     195         -1.068018        1.000000        0.00000001        0.00000005        0.00000000
     196         -1.067683        1.000000        0.00000000        0.00000002        0.00000000
     197         -1.067094        1.000000        0.00000000        0.00000002        0.00000000
     198         -1.066200        1.000000        0.00000001        0.00000003        0.00000000
     199         -1.065105        1.000000        0.00000003        0.00000006        0.00000000
     200         -1.064600        1.000000        0.00000003        0.00000003        0.00000000
     201         -1.063825        1.000000        0.00000004        0.00000015        0.00000001
     202         -1.063672        1.000000        0.00000023        0.00000005        0.00000001
     203         -1.062915        1.000000        0.00000001        0.00000014        0.00000000
     204         -1.062259        1.000000        0.00000000        0.00000001        0.00000000
     205         -1.061986        1.000000        0.00000001        0.00000005        0.00000001
     206         -1.060822        1.000000        0.00000001        0.00000002        0.00000000
     207         -1.060230        1.000000        0.00000011        0.00000005        0.00000001
     208         -1.059971        1.000000        0.00000009        0.00000011        0.00000003
     209         -1.059399        1.000000        0.00000000        0.00000002        0.00000000
     210         -1.058798        1.000000        0.00000002        0.00000001        0.00000000
     211         -1.058498        1.000000        0.00000004        0.00000005        0.00000001
     212         -1.057049        1.000000        0.00000002        0.00000006        0.00000001
     213         -1.056896        1.000000        0.00000002        0.00000001        0.00000000
     214         -1.056403        1.000000        0.00000001        0.00000009        0.00000001
     215         -1.056079        1.000000        0.00000000        0.00000000        0.00000000
     216         -1.055624        1.000000        0.00000002        0.00000002        0.00000000
     217         -1.055288        1.000000        0.00000000        0.00000001        0.00000000
     218         -1.054828        1.000000        0.00000000        0.00000000        0.00000000
     219         -1.054413        1.000000        0.00000000        0.00000002        0.00000000
     220         -1.053990        1.000000        0.00000004        0.00000003        0.00000001
     221         -1.053598        1.000000        0.00000001        0.00000005        0.00000001
     222         -1.053387        1.000000        0.00000000        0.00000004        0.00000001
     223         -1.052953        1.000000        0.00000000        0.00000002        0.00000000
     224         -1.052779        1.000000        0.00000001        0.00000004        0.00000000
     225         -1.052376        1.000000        0.00000002        0.00000012        0.00000001
     226         -1.052297        1.000000        0.00000000        0.00000000        0.00000000
     227         -1.051819        1.000000        0.00000001        0.00000001        0.00000000
     228         -1.051536        1.000000        0.00000023        0.00000035        0.00000006
     229         -1.051232        1.000000        0.00000002        0.00000000        0.00000000
     230         -1.050581        1.000000        0.00000001        0.00000005        0.00000000
     231         -1.050140        1.000000        0.00000009        0.00000008        0.00000002
     232         -1.049834        1.000000        0.00000000        0.00000002        0.00000000
     233         -1.049588        1.000000        0.00000000        0.00000001        0.00000000
     234         -1.049506        1.000000        0.00000000        0.00000001        0.00000000
     235         -1.048565        1.000000        0.00000001        0.00000000        0.00000000
     236         -1.048103        1.000000        0.00000003        0.00000004        0.00000002
     237         -1.048023        1.000000        0.00000007        0.00000011        0.00000002
     238         -1.047651        1.000000        0.00000002        0.00000003        0.00000001
     239         -1.047305        1.000000        0.00000005        0.00000013        0.00000002
     240         -1.046707        1.000000        0.00000004        0.00000004        0.00000001
     241         -1.046592        1.000000        0.00000004        0.00000003        0.00000001
     242         -1.046281        1.000000        0.00000000        0.00000000        0.00000000
     243         -1.045974        1.000000        0.00000000        0.00000000        0.00000000
     244         -1.045866        1.000000        0.00000001        0.00000001        0.00000000
     245         -1.045771        1.000000        0.00000001        0.00000007        0.00000001
     246         -1.045301        1.000000        0.00000000        0.00000002        0.00000000
     247         -1.045020        1.000000        0.00000005        0.00000031        0.00000002
     248         -1.043956        1.000000        0.00000000        0.00000001        0.00000000
     249         -1.043818        1.000000        0.00000001        0.00000001        0.00000000
     250         -1.043244        1.000000        0.00000001        0.00000001        0.00000000
     251         -1.043119        1.000000        0.00000000        0.00000000        0.00000000
     252         -1.042993        1.000000        0.00000000        0.00000001        0.00000000
     253         -1.042515        1.000000        0.00000000        0.00000002        0.00000000
     254         -1.041302        1.000000        0.00000002        0.00000007        0.00000001
     255         -1.041116        1.000000        0.00000006        0.00000026        0.00000002
     256         -1.040594        1.000000        0.00000000        0.00000002        0.00000000
     257         -1.040094        1.000000        0.00000007        0.00000041        0.00000002
     258         -1.039599        1.000000        0.00000001        0.00000005        0.00000001
     259         -1.039408        1.000000        0.00000002        0.00000009        0.00000001
     260         -1.038970        1.000000        0.00000001        0.00000007        0.00000001
     261         -1.038561        1.000000        0.00000000        0.00000002        0.00000000
     262         -1.038022        1.000000        0.00000000        0.00000000        0.00000000
     263         -1.037841        1.000000        0.00000000        0.00000002        0.00000000
     264         -1.036991        1.000000        0.00000000        0.00000001        0.00000000
     265         -1.036854        1.000000        0.00000007        0.00000033        0.00000001
     266         -1.035910        1.000000        0.00000000        0.00000001        0.00000000
     267         -1.035115        1.000000        0.00000002        0.00000004        0.00000000
     268         -1.034275        1.000000        0.00000001        0.00000004        0.00000000
     269         -1.033697        1.000000        0.00000000        0.00000000        0.00000000
     270         -1.033444        1.000000        0.00000078        0.00000247        0.00000004
     271         -1.033385        1.000000        0.00000055        0.00000166        0.00000003
     272         -1.033262        1.000000        0.00000000        0.00000000        0.00000000
     273         -1.032346        1.000000        0.00000187        0.00000773        0.00000024
     274         -1.031626        1.000000        0.00000001        0.00000003        0.00000000
     275         -1.030746        1.000000        0.00000000        0.00000000        0.00000000
     276         -1.029780        1.000000        0.00000000        0.00000000        0.00000000
     277         -1.028980        1.000000        0.00000000        0.00000000        0.00000000
     278         -1.027492        1.000000        0.00000006        0.00000016        0.00000000
     279         -1.025795        1.000000        0.00000000        0.00000002        0.00000000
     280         -1.023990        1.000000        0.00000004        0.00000011        0.00000000
     281         -1.022755        1.000000        0.00000000        0.00000000        0.00000000
     282         -1.019871        1.000000        0.00000000        0.00000000        0.00000000
     283         -1.017737        1.000000        0.00000000        0.00000000        0.00000000
     284         -1.012409        1.000000        0.00000000        0.00000000        0.00000000
     285         -1.010522        1.000000        0.00000000        0.00000000        0.00000000
     286         -0.880961        1.000000        0.00599600        0.00036919        0.00000536
     287         -0.861761        1.000000        0.01036652        0.00065147        0.00001258
     288         -0.860652        1.000000        0.00023833        0.00070265        0.00002507
     289         -0.854811        1.000000        0.00087727        0.00053071        0.00003541
     290         -0.853189        1.000000        0.00891815        0.00113621        0.00003360
     291         -0.838407        1.000000        0.00553306        0.00055995        0.00002982
     292         -0.837131        1.000000        0.02047936        0.00112895        0.00001038
     293         -0.835422        1.000000        0.00084712        0.00114113        0.00003254
     294         -0.832873        1.000000        0.00082976        0.00072052        0.00005865
     295         -0.813092        1.000000        0.00150883        0.00051893        0.00002378
     296         -0.811309        1.000000        0.01363847        0.00035389        0.00009056
     297         -0.805633        1.000000        0.00057089        0.00011962        0.00006670
     298         -0.800994        1.000000        0.01474807        0.00022555        0.00007615
     299         -0.798544        1.000000        0.00086901        0.00066844        0.00003350
     300         -0.797176        1.000000        0.00139275        0.00040850        0.00011288
     301         -0.796065        1.000000        0.00000018        0.00017932        0.00002948
     302         -0.795247        1.000000        0.00081499        0.00016234        0.00006559
     303         -0.794465        1.000000        0.00898649        0.00089650        0.00006312
     304         -0.792558        1.000000        0.01267169        0.00034382        0.00005008
     305         -0.791532        1.000000        0.00997837        0.00085437        0.00004151
     306         -0.790931        1.000000        0.00597554        0.00115035        0.00005291
     307         -0.790366        1.000000        0.01420343        0.00029493        0.00003077