# Projected DOS for list 311 of 1 atoms, at iteration step i = 0, E(Fermi) =    -0.237583 a.u.
#     MO Eigenvalue [a.u.]      Occupation                 s                 p                 d
       1         -3.115895        1.000000        0.00001369        0.00010742        0.00001362
       2         -3.112717        1.000000        0.00019285        0.00010028        0.00001219
       3         -3.112103        1.000000        0.00000036        0.00000054        0.00000007
       4         -3.111180        1.000000        0.00000003        0.00000008        0.00000002
       5         -3.110810        1.000000        0.00000681        0.00000480        0.00000113
       6         -3.110575        1.000000        0.00001935        0.00001987        0.00000211
       7         -3.110067        1.000000        0.00068584        0.00057568        0.00000668
       8         -3.109817        1.000000        0.00290559        0.00783242        0.00065767
       9         -3.109660        1.000000        0.00001287        0.00008399        0.00001010
      10         -3.108831        1.000000        0.00003760        0.00012547        0.00000988
      11         -3.108678        1.000000        0.00000717        0.00008957        0.00001763
      12         -3.108578        1.000000        0.00000578        0.00008973        0.00001374
      13         -3.108350        1.000000        0.00002700        0.00005561        0.00000151
      14         -3.108163        1.000000        0.00010715        0.00024692        0.00000976
      15         -3.107948        1.000000        0.00000030        0.00020638        0.00002491
      16         -3.107865        1.000000        0.00013982        0.00035655        0.00002508
      17         -3.107703        1.000000        0.00108546        0.00301402        0.00030336
      18         -3.107683        1.000000        0.00003609        0.00008533        0.00000707
      19         -3.107641        1.000000        0.00053668        0.00170531        0.00015582
      20         -3.107604        1.000000        0.00040983        0.00136001        0.00014883
      21         -3.107402        1.000000        0.00000965        0.00004080        0.00000882
      22         -3.107115        1.000000        0.00000842        0.00003419        0.00000722
      23         -3.107013        1.000000        0.00005269        0.00031521        0.00004698
      24         -3.106750        1.000000        0.00000642        0.00019038        0.00001299
      25         -3.106619        1.000000        0.00008495        0.00023618        0.00004651
      26         -3.106567        1.000000        0.00000727        0.00003468        0.00000485
      27         -3.106546        1.000000        0.00000127        0.00000160        0.00000020
      28         -3.106258        1.000000        0.00103502        0.00507529        0.00067252
      29         -3.106103        1.000000        0.00017145        0.00073020        0.00011398
      30         -3.104674        1.000000        0.00000031        0.00000457        0.00000078
      31         -1.775522        1.000000        0.00007697        0.00021900        0.00001762
      32         -1.773964        1.000000        0.00018721        0.00044911        0.00001921
      33         -1.773454        1.000000        0.00006126        0.00020154        0.00002502
      34         -1.773008        1.000000        0.00002691        0.00012722        0.00003555
      35         -1.772581        1.000000        0.00000164        0.00003455        0.00001616
      36         -1.772213        1.000000        0.00033550        0.00082317        0.00003639
      37         -1.771852        1.000000        0.00028686        0.00071137        0.00005135
      38         -1.771444        1.000000        0.00010727        0.00042424        0.00010727
      39         -1.771233        1.000000        0.00027182        0.00081687        0.00010979
      40         -1.770977        1.000000        0.00005169        0.00017728        0.00002946
      41         -1.770760        1.000000        0.00005044        0.00025268        0.00006093
      42         -1.770111        1.000000        0.00024873        0.00087261        0.00016568
      43         -1.770034        1.000000        0.00008360        0.00021211        0.00002790
      44         -1.769495        1.000000        0.00000047        0.00007058        0.00004689
      45         -1.769421        1.000000        0.00010760        0.00025811        0.00001680
      46         -1.769063        1.000000        0.00020132        0.00056426        0.00008165
      47         -1.768532        1.000000        0.00003460        0.00010607        0.00001284
      48         -1.768412        1.000000        0.00007095        0.00028918        0.00004646
      49         -1.767811        1.000000        0.00018968        0.00047490        0.00004051
      50         -1.767614        1.000000        0.00000603        0.00003472        0.00001182
      51         -1.767477        1.000000        0.00011605        0.00038066        0.00005165
      52         -1.765531        1.000000        0.00000016        0.00021453        0.00012065
      53         -1.765088        1.000000        0.00010449        0.00028119        0.00005466
      54         -1.764557        1.000000        0.00004936        0.00016424        0.00003738
      55         -1.763772        1.000000        0.00030873        0.00050099        0.00002353
      56         -1.763328        1.000000        0.00005692        0.00013654        0.00001471
      57         -1.762925        1.000000        0.00024501        0.00056325        0.00008535
      58         -1.762506        1.000000        0.00000082        0.00012342        0.00006482
      59         -1.762119        1.000000        0.00016804        0.00025476        0.00003232
      60         -1.762053        1.000000        0.00007502        0.00068931        0.00027113
      61         -1.761895        1.000000        0.00019195        0.00035449        0.00005930
      62         -1.761602        1.000000        0.00009986        0.00029275        0.00006146
      63         -1.761509        1.000000        0.00004016        0.00025349        0.00004996
      64         -1.761377        1.000000        0.00012471        0.00029493        0.00002017
      65         -1.761171        1.000000        0.00017065        0.00063946        0.00014178
      66         -1.760998        1.000000        0.00001109        0.00020705        0.00007663
      67         -1.760877        1.000000        0.00000540        0.00007765        0.00003170
      68         -1.760806        1.000000        0.00007616        0.00040365        0.00011922
      69         -1.760684        1.000000        0.00000214        0.00006111        0.00003320
      70         -1.760645        1.000000        0.00000351        0.00031974        0.00012719
      71         -1.760442        1.000000        0.00020800        0.00033347        0.00001810
      72         -1.760098        1.000000        0.00019762        0.00054191        0.00010210
      73         -1.759962        1.000000        0.00005310        0.00069691        0.00023061
      74         -1.759824        1.000000        0.00002759        0.00062760        0.00019453
      75         -1.759787        1.000000        0.00003804        0.00015473        0.00005549
      76         -1.759638        1.000000        0.00015865        0.00069318        0.00020313
      77         -1.759601        1.000000        0.00006594        0.00010390        0.00001329
      78         -1.759512        1.000000        0.00019128        0.00133880        0.00038587
      79         -1.759406        1.000000        0.00001233        0.00005976        0.00000955
      80         -1.759287        1.000000        0.00000127        0.00019405        0.00008145
      81         -1.759176        1.000000        0.00000215        0.00038344        0.00017095
      82         -1.758872        1.000000        0.00001299        0.00011139        0.00006474
      83         -1.758781        1.000000        0.00000134        0.00025877        0.00011852
      84         -1.758726        1.000000        0.00009287        0.00039924        0.00008174
      85         -1.758559        1.000000        0.00005452        0.00137292        0.00056366
      86         -1.758378        1.000000        0.00001491        0.00007380        0.00001769
      87         -1.758294        1.000000        0.00000963        0.00004753        0.00001131
      88         -1.758087        1.000000        0.00000146        0.00006206        0.00003604
      89         -1.757987        1.000000        0.00000461        0.00002644        0.00000628
      90         -1.757734        1.000000        0.00000090        0.00010213        0.00002482
      91         -1.757649        1.000000        0.00000942        0.00005318        0.00002993
      92         -1.757529        1.000000        0.00004718        0.00019443        0.00005604
      93         -1.757404        1.000000        0.00000517        0.00007972        0.00002414
      94         -1.757324        1.000000        0.00004707        0.00012169        0.00002029
      95         -1.757187        1.000000        0.00000888        0.00014242        0.00007128
      96         -1.757137        1.000000        0.00000002        0.00024196        0.00010814
      97         -1.756770        1.000000        0.00001502        0.00040557        0.00016461
      98         -1.756598        1.000000        0.00000189        0.00001947        0.00001410
      99         -1.756513        1.000000        0.00004778        0.00013460        0.00003718
     100         -1.756186        1.000000        0.00000851        0.00063175        0.00026102
     101         -1.755847        1.000000        0.00002880        0.00004989        0.00001273
     102         -1.755716        1.000000        0.00002726        0.00018744        0.00007166
     103         -1.755306        1.000000        0.00003038        0.00032756        0.00016768
     104         -1.755052        1.000000        0.00000231        0.00011449        0.00008648
     105         -1.754765        1.000000        0.00000998        0.00015543        0.00013381
     106         -1.754094        1.000000        0.00003417        0.00008376        0.00002968
     107         -1.753681        1.000000        0.00000775        0.00015178        0.00007915
     108         -1.753548        1.000000        0.00002024        0.00030660        0.00015439
     109         -1.753256        1.000000        0.00000729        0.00044526        0.00027233
     110         -1.752675        1.000000        0.00004470        0.00019377        0.00007672
     111         -1.752502        1.000000        0.00001332        0.00009989        0.00002633
     112         -1.752253        1.000000        0.00000011        0.00000548        0.00001423
     113         -1.751643        1.000000        0.00000442        0.00011515        0.00010062
     114         -1.751317        1.000000        0.00000100        0.00002435        0.00001636
     115         -1.749193        1.000000        0.00000092        0.00011515        0.00004455
     116         -1.748137        1.000000        0.00000389        0.00041767        0.00017694
     117         -1.747283        1.000000        0.00000133        0.00010861        0.00007581
     118         -1.745962        1.000000        0.00000550        0.00013100        0.00012978
     119         -1.745880        1.000000        0.00000032        0.00003611        0.00001342
     120         -1.744143        1.000000        0.00000250        0.00007562        0.00004925
     121         -1.145318        1.000000        0.00000016        0.00000024        0.00000001
     122         -1.141162        1.000000        0.00000028        0.00000047        0.00000003
     123         -1.135518        1.000000        0.00000003        0.00000001        0.00000000
     124         -1.134356        1.000000        0.00000133        0.00000237        0.00000015
     125         -1.132797        1.000000        0.00000029        0.00000053        0.00000004
     126         -1.131675        1.000000        0.00000001        0.00000001        0.00000000
     127         -1.130657        1.000000        0.00000001        0.00000001        0.00000000
     128         -1.129329        1.000000        0.00000000        0.00000000        0.00000000
     129         -1.127805        1.000000        0.00000007        0.00000012        0.00000001
     130         -1.126970        1.000000        0.00000310        0.00000560        0.00000038
     131         -1.125100        1.000000        0.00000028        0.00000043        0.00000003
     132         -1.124640        1.000000        0.00000002        0.00000007        0.00000001
     133         -1.122028        1.000000        0.00000048        0.00000091        0.00000006
     134         -1.120887        1.000000        0.00000012        0.00000023        0.00000001
     135         -1.119308        1.000000        0.00000011        0.00000006        0.00000001
     136         -1.118408        1.000000        0.00000000        0.00000003        0.00000000
     137         -1.117769        1.000000        0.00000002        0.00000005        0.00000000
     138         -1.116570        1.000000        0.00000011        0.00000058        0.00000004
     139         -1.115096        1.000000        0.00000002        0.00000003        0.00000000
     140         -1.114402        1.000000        0.00000027        0.00000053        0.00000003
     141         -1.114039        1.000000        0.00000000        0.00000003        0.00000000
     142         -1.112381        1.000000        0.00000005        0.00000010        0.00000001
     143         -1.111588        1.000000        0.00000000        0.00000002        0.00000000
     144         -1.111356        1.000000        0.00000002        0.00000005        0.00000000
     145         -1.110913        1.000000        0.00000021        0.00000059        0.00000004
     146         -1.109631        1.000000        0.00000001        0.00000004        0.00000000
     147         -1.107338        1.000000        0.00000010        0.00000024        0.00000002
     148         -1.107163        1.000000        0.00000004        0.00000005        0.00000001
     149         -1.106911        1.000000        0.00000027        0.00000040        0.00000004
     150         -1.105904        1.000000        0.00000010        0.00000023        0.00000002
     151         -1.104513        1.000000        0.00000042        0.00000055        0.00000009
     152         -1.103753        1.000000        0.00000014        0.00000043        0.00000013
     153         -1.103233        1.000000        0.00000002        0.00000002        0.00000001
     154         -1.101116        1.000000        0.00000036        0.00000108        0.00000007
     155         -1.099878        1.000000        0.00000015        0.00000053        0.00000003
     156         -1.099527        1.000000        0.00000039        0.00000123        0.00000008
     157         -1.099360        1.000000        0.00000160        0.00000381        0.00000025
     158         -1.097449        1.000000        0.00000001        0.00000001        0.00000000
     159         -1.097246        1.000000        0.00000003        0.00000006        0.00000001
     160         -1.096336        1.000000        0.00000002        0.00000002        0.00000000
     161         -1.095776        1.000000        0.00000017        0.00000047        0.00000004
     162         -1.094258        1.000000        0.00000024        0.00000045        0.00000005
     163         -1.093701        1.000000        0.00000054        0.00000111        0.00000011
     164         -1.093107        1.000000        0.00000000        0.00000002        0.00000000
     165         -1.091600        1.000000        0.00000010        0.00000021        0.00000002
     166         -1.090890        1.000000        0.00000003        0.00000005        0.00000001
     167         -1.090283        1.000000        0.00000000        0.00000001        0.00000000
     168         -1.089378        1.000000        0.00000000        0.00000003        0.00000001
     169         -1.088506        1.000000        0.00000065        0.00000134        0.00000014
     170         -1.086931        1.000000        0.00000008        0.00000026        0.00000002
     171         -1.086367        1.000000        0.00000194        0.00000423        0.00000041
     172         -1.085327        1.000000        0.00000074        0.00000207        0.00000020
     173         -1.084766        1.000000        0.00000036        0.00000064        0.00000006
     174         -1.083961        1.000000        0.00000000        0.00000001        0.00000000
     175         -1.082920        1.000000        0.00000085        0.00000219        0.00000022
     176         -1.081700        1.000000        0.00000169        0.00000410        0.00000038
     177         -1.081031        1.000000        0.00000114        0.00000228        0.00000022
     178         -1.080558        1.000000        0.00000027        0.00000068        0.00000006
     179         -1.080415        1.000000        0.00000000        0.00000001        0.00000000
     180         -1.080047        1.000000        0.00000002        0.00000008        0.00000001
     181         -1.077309        1.000000        0.00001627        0.00004208        0.00000414
     182         -1.076601        1.000000        0.00000034        0.00000103        0.00000011
     183         -1.076342        1.000000        0.00000155        0.00000384        0.00000041
     184         -1.076154        1.000000        0.00000401        0.00001058        0.00000102
     185         -1.075469        1.000000        0.00000027        0.00000051        0.00000005
     186         -1.074904        1.000000        0.00000000        0.00000001        0.00000000
     187         -1.074160        1.000000        0.00000027        0.00000072        0.00000008
     188         -1.073364        1.000000        0.00000001        0.00000003        0.00000000
     189         -1.071841        1.000000        0.00002641        0.00006881        0.00000718
     190         -1.071436        1.000000        0.00000238        0.00000548        0.00000056
     191         -1.070358        1.000000        0.00002927        0.00007373        0.00000769
     192         -1.070160        1.000000        0.00006535        0.00016790        0.00001763
     193         -1.069551        1.000000        0.00002086        0.00005452        0.00000581
     194         -1.069042        1.000000        0.00000040        0.00000122        0.00000015
     195         -1.068018        1.000000        0.00000835        0.00002211        0.00000245
     196         -1.067683        1.000000        0.00000092        0.00000259        0.00000028
     197         -1.067094        1.000000        0.00000091        0.00000187        0.00000019
     198         -1.066200        1.000000        0.00000549        0.00001522        0.00000168
     199         -1.065105        1.000000        0.00000069        0.00000234        0.00000031
     200         -1.064600        1.000000        0.00000604        0.00001502        0.00000165
     201         -1.063825        1.000000        0.00000146        0.00000482        0.00000056
     202         -1.063672        1.000000        0.00001613        0.00004107        0.00000466
     203         -1.062915        1.000000        0.00000349        0.00000872        0.00000092
     204         -1.062259        1.000000        0.00000080        0.00000230        0.00000029
     205         -1.061986        1.000000        0.00000061        0.00000144        0.00000018
     206         -1.060822        1.000000        0.00000030        0.00000066        0.00000006
     207         -1.060230        1.000000        0.00000286        0.00000733        0.00000083
     208         -1.059971        1.000000        0.00000003        0.00000004        0.00000000
     209         -1.059399        1.000000        0.00000247        0.00000654        0.00000076
     210         -1.058798        1.000000        0.00000026        0.00000066        0.00000008
     211         -1.058498        1.000000        0.00000130        0.00000388        0.00000049
     212         -1.057049        1.000000        0.00000029        0.00000069        0.00000008
     213         -1.056896        1.000000        0.00000032        0.00000094        0.00000010
     214         -1.056403        1.000000        0.00000019        0.00000059        0.00000007
     215         -1.056079        1.000000        0.00000005        0.00000020        0.00000002
     216         -1.055624        1.000000        0.00000123        0.00000323        0.00000039
     217         -1.055288        1.000000        0.00000006        0.00000014        0.00000002
     218         -1.054828        1.000000        0.00000001        0.00000004        0.00000000
     219         -1.054413        1.000000        0.00000016        0.00000062        0.00000008
     220         -1.053990        1.000000        0.00000028        0.00000095        0.00000014
     221         -1.053598        1.000000        0.00000019        0.00000065        0.00000009
     222         -1.053387        1.000000        0.00000142        0.00000493        0.00000067
     223         -1.052953        1.000000        0.00000003        0.00000010        0.00000001
     224         -1.052779        1.000000        0.00000015        0.00000053        0.00000007
     225         -1.052376        1.000000        0.00000012        0.00000047        0.00000007
     226         -1.052297        1.000000        0.00000008        0.00000027        0.00000003
     227         -1.051819        1.000000        0.00000002        0.00000012        0.00000001
     228         -1.051536        1.000000        0.00000005        0.00000022        0.00000002
     229         -1.051232        1.000000        0.00000002        0.00000007        0.00000001
     230         -1.050581        1.000000        0.00000001        0.00000002        0.00000000
     231         -1.050140        1.000000        0.00000004        0.00000011        0.00000001
     232         -1.049834        1.000000        0.00000004        0.00000010        0.00000001
     233         -1.049588        1.000000        0.00000000        0.00000001        0.00000000
     234         -1.049506        1.000000        0.00000001        0.00000002        0.00000000
     235         -1.048565        1.000000        0.00000053        0.00000168        0.00000019
     236         -1.048103        1.000000        0.00000024        0.00000082        0.00000010
     237         -1.048023        1.000000        0.00000002        0.00000004        0.00000000
     238         -1.047651        1.000000        0.00000038        0.00000116        0.00000013
     239         -1.047305        1.000000        0.00000000        0.00000001        0.00000000
     240         -1.046707        1.000000        0.00000004        0.00000014        0.00000002
     241         -1.046592        1.000000        0.00000002        0.00000007        0.00000001
     242         -1.046281        1.000000        0.00000000        0.00000000        0.00000000
     243         -1.045974        1.000000        0.00000001        0.00000004        0.00000000
     244         -1.045866        1.000000        0.00000002        0.00000007        0.00000001
     245         -1.045771        1.000000        0.00000000        0.00000001        0.00000000
     246         -1.045301        1.000000        0.00000000        0.00000000        0.00000000
     247         -1.045020        1.000000        0.00000001        0.00000007        0.00000000
     248         -1.043956        1.000000        0.00000000        0.00000000        0.00000000
     249         -1.043818        1.000000        0.00000002        0.00000011        0.00000001
     250         -1.043244        1.000000        0.00000001        0.00000004        0.00000000
     251         -1.043119        1.000000        0.00000000        0.00000000        0.00000000
     252         -1.042993        1.000000        0.00000000        0.00000001        0.00000000
     253         -1.042515        1.000000        0.00000000        0.00000000        0.00000000
     254         -1.041302        1.000000        0.00000002        0.00000009        0.00000001
     255         -1.041116        1.000000        0.00000003        0.00000016        0.00000002
     256         -1.040594        1.000000        0.00000000        0.00000000        0.00000000
     257         -1.040094        1.000000        0.00000003        0.00000014        0.00000002
     258         -1.039599        1.000000        0.00000001        0.00000008        0.00000001
     259         -1.039408        1.000000        0.00000003        0.00000011        0.00000001
     260         -1.038970        1.000000        0.00000003        0.00000013        0.00000002
     261         -1.038561        1.000000        0.00000000        0.00000002        0.00000000
     262         -1.038022        1.000000        0.00000000        0.00000001        0.00000000
     263         -1.037841        1.000000        0.00000000        0.00000000        0.00000000
     264         -1.036991        1.000000        0.00000001        0.00000004        0.00000000
     265         -1.036854        1.000000        0.00000006        0.00000033        0.00000004
     266         -1.035910        1.000000        0.00000000        0.00000001        0.00000000
     267         -1.035115        1.000000        0.00000009        0.00000048        0.00000006
     268         -1.034275        1.000000        0.00000005        0.00000024        0.00000003
     269         -1.033697        1.000000        0.00000002        0.00000012        0.00000002
     270         -1.033444        1.000000        0.00000080        0.00000431        0.00000053
     271         -1.033385        1.000000        0.00000083        0.00000446        0.00000056
     272         -1.033262        1.000000        0.00000009        0.00000047        0.00000006
     273         -1.032346        1.000000        0.00000128        0.00000596        0.00000079
     274         -1.031626        1.000000        0.00000000        0.00000000        0.00000000
     275         -1.030746        1.000000        0.00000000        0.00000000        0.00000000
     276         -1.029780        1.000000        0.00000000        0.00000000        0.00000000
     277         -1.028980        1.000000        0.00000000        0.00000000        0.00000000
     278         -1.027492        1.000000        0.00000000        0.00000001        0.00000000
     279         -1.025795        1.000000        0.00000012        0.00000047        0.00000006
     280         -1.023990        1.000000        0.00000000        0.00000003        0.00000000
     281         -1.022755        1.000000        0.00000000        0.00000000        0.00000000
     282         -1.019871        1.000000        0.00000000        0.00000000        0.00000000
     283         -1.017737        1.000000        0.00000000        0.00000003        0.00000000
     284         -1.012409        1.000000        0.00000000        0.00000000        0.00000000
     285         -1.010522        1.000000        0.00000000        0.00000000        0.00000000
     286         -0.880961        1.000000        0.00861026        0.00039457        0.00000671
     287         -0.861761        1.000000        0.01094581        0.00073984        0.00002631
     288         -0.860652        1.000000        0.01539608        0.00079933        0.00000728
     289         -0.854811        1.000000        0.01370699        0.00075575        0.00002071
     290         -0.853189        1.000000        0.00295938        0.00135444        0.00002920
     291         -0.838407        1.000000        0.01650748        0.00138438        0.00003467
     292         -0.837131        1.000000        0.00967552        0.00114816        0.00003984
     293         -0.835422        1.000000        0.00909015        0.00144384        0.00004686
     294         -0.832873        1.000000        0.00096580        0.00087559        0.00001810
     295         -0.813092        1.000000        0.00130008        0.00117317        0.00012158
     296         -0.811309        1.000000        0.00979035        0.00034694        0.00006830
     297         -0.805633        1.000000        0.01107188        0.00025962        0.00006936
     298         -0.800994        1.000000        0.00640121        0.00074691        0.00008705
     299         -0.798544        1.000000        0.01533242        0.00028447        0.00005075
     300         -0.797176        1.000000        0.00514208        0.00228049        0.00013726
     301         -0.796065        1.000000        0.04071362        0.00072578        0.00010127
     302         -0.795247        1.000000        0.04303444        0.00142986        0.00011497
     303         -0.794465        1.000000        0.00193537        0.00025798        0.00003609
     304         -0.792558        1.000000        0.00043507        0.00011204        0.00002101
     305         -0.791532        1.000000        0.00045475        0.00179657        0.00001260
     306         -0.790931        1.000000        0.00053721        0.00007914        0.00010295
     307         -0.790366        1.000000        0.00178703        0.00017873        0.00002725