# Projected DOS for list 351 of 1 atoms, at iteration step i = 0, E(Fermi) =    -0.237583 a.u.
#     MO Eigenvalue [a.u.]      Occupation                 s                 p
       1         -3.115895        1.000000        0.00000001        0.00000003
       2         -3.112717        1.000000        0.00000046        0.00001245
       3         -3.112103        1.000000        0.00000001        0.00000196
       4         -3.111180        1.000000        0.00000000        0.00000043
       5         -3.110810        1.000000        0.00000008        0.00000364
       6         -3.110575        1.000000        0.00000023        0.00001346
       7         -3.110067        1.000000        0.00000001        0.00000013
       8         -3.109817        1.000000        0.00000002        0.00000024
       9         -3.109660        1.000000        0.00000003        0.00000485
      10         -3.108831        1.000000        0.00000002        0.00000133
      11         -3.108678        1.000000        0.00000003        0.00000246
      12         -3.108578        1.000000        0.00000002        0.00000161
      13         -3.108350        1.000000        0.00000018        0.00000483
      14         -3.108163        1.000000        0.00000000        0.00000025
      15         -3.107948        1.000000        0.00000002        0.00000055
      16         -3.107865        1.000000        0.00000007        0.00000228
      17         -3.107703        1.000000        0.00000007        0.00000112
      18         -3.107683        1.000000        0.00000012        0.00000082
      19         -3.107641        1.000000        0.00000000        0.00000052
      20         -3.107604        1.000000        0.00000004        0.00000104
      21         -3.107402        1.000000        0.00000000        0.00000005
      22         -3.107115        1.000000        0.00000000        0.00000001
      23         -3.107013        1.000000        0.00000000        0.00000000
      24         -3.106750        1.000000        0.00000000        0.00000070
      25         -3.106619        1.000000        0.00000000        0.00000014
      26         -3.106567        1.000000        0.00000002        0.00000035
      27         -3.106546        1.000000        0.00000003        0.00000185
      28         -3.106258        1.000000        0.00000000        0.00000000
      29         -3.106103        1.000000        0.00000000        0.00000000
      30         -3.104674        1.000000        0.00000000        0.00000000
      31         -1.775522        1.000000        0.00000001        0.00000005
      32         -1.773964        1.000000        0.00000000        0.00000002
      33         -1.773454        1.000000        0.00000000        0.00000001
      34         -1.773008        1.000000        0.00000000        0.00000008
      35         -1.772581        1.000000        0.00000000        0.00000002
      36         -1.772213        1.000000        0.00000000        0.00000002
      37         -1.771852        1.000000        0.00000000        0.00000002
      38         -1.771444        1.000000        0.00000000        0.00000005
      39         -1.771233        1.000000        0.00000002        0.00000020
      40         -1.770977        1.000000        0.00000001        0.00000009
      41         -1.770760        1.000000        0.00000002        0.00000008
      42         -1.770111        1.000000        0.00000001        0.00000007
      43         -1.770034        1.000000        0.00000000        0.00000015
      44         -1.769495        1.000000        0.00000001        0.00000003
      45         -1.769421        1.000000        0.00000001        0.00000011
      46         -1.769063        1.000000        0.00000000        0.00000003
      47         -1.768532        1.000000        0.00000002        0.00000029
      48         -1.768412        1.000000        0.00000000        0.00000004
      49         -1.767811        1.000000        0.00000001        0.00000011
      50         -1.767614        1.000000        0.00000005        0.00000030
      51         -1.767477        1.000000        0.00000000        0.00000008
      52         -1.765531        1.000000        0.00000002        0.00000001
      53         -1.765088        1.000000        0.00000000        0.00000025
      54         -1.764557        1.000000        0.00000000        0.00000003
      55         -1.763772        1.000000        0.00000000        0.00000005
      56         -1.763328        1.000000        0.00000001        0.00000043
      57         -1.762925        1.000000        0.00000000        0.00000007
      58         -1.762506        1.000000        0.00000000        0.00000018
      59         -1.762119        1.000000        0.00000002        0.00000007
      60         -1.762053        1.000000        0.00000000        0.00000006
      61         -1.761895        1.000000        0.00000001        0.00000003
      62         -1.761602        1.000000        0.00000000        0.00000002
      63         -1.761509        1.000000        0.00000000        0.00000004
      64         -1.761377        1.000000        0.00000000        0.00000004
      65         -1.761171        1.000000        0.00000000        0.00000007
      66         -1.760998        1.000000        0.00000000        0.00000006
      67         -1.760877        1.000000        0.00000000        0.00000010
      68         -1.760806        1.000000        0.00000001        0.00000005
      69         -1.760684        1.000000        0.00000000        0.00000004
      70         -1.760645        1.000000        0.00000001        0.00000010
      71         -1.760442        1.000000        0.00000000        0.00000001
      72         -1.760098        1.000000        0.00000000        0.00000002
      73         -1.759962        1.000000        0.00000007        0.00000011
      74         -1.759824        1.000000        0.00000001        0.00000005
      75         -1.759787        1.000000        0.00000015        0.00000016
      76         -1.759638        1.000000        0.00000001        0.00000004
      77         -1.759601        1.000000        0.00000000        0.00000005
      78         -1.759512        1.000000        0.00000000        0.00000005
      79         -1.759406        1.000000        0.00000001        0.00000007
      80         -1.759287        1.000000        0.00000001        0.00000001
      81         -1.759176        1.000000        0.00000002        0.00000005
      82         -1.758872        1.000000        0.00000000        0.00000001
      83         -1.758781        1.000000        0.00000003        0.00000002
      84         -1.758726        1.000000        0.00000001        0.00000002
      85         -1.758559        1.000000        0.00000001        0.00000001
      86         -1.758378        1.000000        0.00000001        0.00000002
      87         -1.758294        1.000000        0.00000000        0.00000000
      88         -1.758087        1.000000        0.00000001        0.00000007
      89         -1.757987        1.000000        0.00000001        0.00000003
      90         -1.757734        1.000000        0.00000000        0.00000013
      91         -1.757649        1.000000        0.00000001        0.00000011
      92         -1.757529        1.000000        0.00000001        0.00000003
      93         -1.757404        1.000000        0.00000000        0.00000002
      94         -1.757324        1.000000        0.00000000        0.00000001
      95         -1.757187        1.000000        0.00000000        0.00000000
      96         -1.757137        1.000000        0.00000000        0.00000000
      97         -1.756770        1.000000        0.00000000        0.00000001
      98         -1.756598        1.000000        0.00000000        0.00000004
      99         -1.756513        1.000000        0.00000001        0.00000005
     100         -1.756186        1.000000        0.00000000        0.00000001
     101         -1.755847        1.000000        0.00000000        0.00000001
     102         -1.755716        1.000000        0.00000000        0.00000005
     103         -1.755306        1.000000        0.00000001        0.00000002
     104         -1.755052        1.000000        0.00000001        0.00000004
     105         -1.754765        1.000000        0.00000000        0.00000005
     106         -1.754094        1.000000        0.00000002        0.00000004
     107         -1.753681        1.000000        0.00000000        0.00000000
     108         -1.753548        1.000000        0.00000003        0.00000028
     109         -1.753256        1.000000        0.00000000        0.00000001
     110         -1.752675        1.000000        0.00000000        0.00000004
     111         -1.752502        1.000000        0.00000000        0.00000001
     112         -1.752253        1.000000        0.00000000        0.00000000
     113         -1.751643        1.000000        0.00000000        0.00000001
     114         -1.751317        1.000000        0.00000000        0.00000001
     115         -1.749193        1.000000        0.00000000        0.00000001
     116         -1.748137        1.000000        0.00000000        0.00000001
     117         -1.747283        1.000000        0.00000000        0.00000000
     118         -1.745962        1.000000        0.00000000        0.00000002
     119         -1.745880        1.000000        0.00000000        0.00000001
     120         -1.744143        1.000000        0.00000000        0.00000000
     121         -1.145318        1.000000        0.00001142        0.00003333
     122         -1.141162        1.000000        0.00000058        0.00000476
     123         -1.135518        1.000000        0.00003472        0.00006227
     124         -1.134356        1.000000        0.00003317        0.00003868
     125         -1.132797        1.000000        0.00000093        0.00001896
     126         -1.131675        1.000000        0.00000055        0.00000776
     127         -1.130657        1.000000        0.00003789        0.00005694
     128         -1.129329        1.000000        0.00001743        0.00005479
     129         -1.127805        1.000000        0.00005779        0.00007413
     130         -1.126970        1.000000        0.00003431        0.00002281
     131         -1.125100        1.000000        0.00001157        0.00004337
     132         -1.124640        1.000000        0.00025536        0.00019530
     133         -1.122028        1.000000        0.00001033        0.00004136
     134         -1.120887        1.000000        0.00000872        0.00000148
     135         -1.119308        1.000000        0.00002301        0.00003829
     136         -1.118408        1.000000        0.00004424        0.00001500
     137         -1.117769        1.000000        0.00010174        0.00007072
     138         -1.116570        1.000000        0.00000515        0.00016530
     139         -1.115096        1.000000        0.00005532        0.00006587
     140         -1.114402        1.000000        0.00030882        0.00043149
     141         -1.114039        1.000000        0.00000618        0.00011956
     142         -1.112381        1.000000        0.00000115        0.00000929
     143         -1.111588        1.000000        0.00023083        0.00037967
     144         -1.111356        1.000000        0.00039148        0.00019674
     145         -1.110913        1.000000        0.00026114        0.00027658
     146         -1.109631        1.000000        0.00000967        0.00009006
     147         -1.107338        1.000000        0.00013854        0.00013451
     148         -1.107163        1.000000        0.00000034        0.00000398
     149         -1.106911        1.000000        0.00012922        0.00003449
     150         -1.105904        1.000000        0.00014565        0.00009552
     151         -1.104513        1.000000        0.00013252        0.00007582
     152         -1.103753        1.000000        0.00033482        0.00015881
     153         -1.103233        1.000000        0.00000125        0.00000630
     154         -1.101116        1.000000        0.00002519        0.00013502
     155         -1.099878        1.000000        0.00012563        0.00022093
     156         -1.099527        1.000000        0.00014309        0.00008747
     157         -1.099360        1.000000        0.00032573        0.00046971
     158         -1.097449        1.000000        0.00001358        0.00003268
     159         -1.097246        1.000000        0.00133112        0.00055012
     160         -1.096336        1.000000        0.00009558        0.00001774
     161         -1.095776        1.000000        0.00003452        0.00003771
     162         -1.094258        1.000000        0.00026703        0.00005000
     163         -1.093701        1.000000        0.00079195        0.00006713
     164         -1.093107        1.000000        0.00047750        0.00034187
     165         -1.091600        1.000000        0.00000599        0.00002393
     166         -1.090890        1.000000        0.00001619        0.00004479
     167         -1.090283        1.000000        0.00000352        0.00000983
     168         -1.089378        1.000000        0.00064755        0.00009690
     169         -1.088506        1.000000        0.00214597        0.00025333
     170         -1.086931        1.000000        0.00004432        0.00001259
     171         -1.086367        1.000000        0.00001055        0.00001131
     172         -1.085327        1.000000        0.00004410        0.00002722
     173         -1.084766        1.000000        0.00070751        0.00008005
     174         -1.083961        1.000000        0.00003920        0.00000077
     175         -1.082920        1.000000        0.00002797        0.00013959
     176         -1.081700        1.000000        0.00291002        0.00019733
     177         -1.081031        1.000000        0.00089008        0.00008040
     178         -1.080558        1.000000        0.00047548        0.00010721
     179         -1.080415        1.000000        0.00002018        0.00010945
     180         -1.080047        1.000000        0.00057453        0.00005729
     181         -1.077309        1.000000        0.00161616        0.00008040
     182         -1.076601        1.000000        0.00024879        0.00021694
     183         -1.076342        1.000000        0.00049152        0.00021249
     184         -1.076154        1.000000        0.00000733        0.00016479
     185         -1.075469        1.000000        0.00643361        0.00106948
     186         -1.074904        1.000000        0.00332695        0.00089905
     187         -1.074160        1.000000        0.00030032        0.00045173
     188         -1.073364        1.000000        0.00080541        0.00025731
     189         -1.071841        1.000000        0.00034891        0.00002264
     190         -1.071436        1.000000        0.00552094        0.00226784
     191         -1.070358        1.000000        0.00009662        0.00008584
     192         -1.070160        1.000000        0.00372742        0.00195234
     193         -1.069551        1.000000        0.00003365        0.00027573
     194         -1.069042        1.000000        0.00657358        0.00205091
     195         -1.068018        1.000000        0.00515882        0.00407584
     196         -1.067683        1.000000        0.00179785        0.00105451
     197         -1.067094        1.000000        0.00000080        0.00001083
     198         -1.066200        1.000000        0.00167693        0.00091111
     199         -1.065105        1.000000        0.00656357        0.00290406
     200         -1.064600        1.000000        0.01972045        0.00899746
     201         -1.063825        1.000000        0.00074022        0.00014189
     202         -1.063672        1.000000        0.00464597        0.00125815
     203         -1.062915        1.000000        0.00375147        0.00307906
     204         -1.062259        1.000000        0.00113845        0.00010404
     205         -1.061986        1.000000        0.00300382        0.00097453
     206         -1.060822        1.000000        0.00080073        0.00046428
     207         -1.060230        1.000000        0.00858229        0.00254596
     208         -1.059971        1.000000        0.00085569        0.00014111
     209         -1.059399        1.000000        0.00787002        0.00543649
     210         -1.058798        1.000000        0.00255232        0.00249208
     211         -1.058498        1.000000        0.00513105        0.00391932
     212         -1.057049        1.000000        0.01021606        0.01276854
     213         -1.056896        1.000000        0.01625420        0.02070381
     214         -1.056403        1.000000        0.00010248        0.00015582
     215         -1.056079        1.000000        0.00032654        0.00085989
     216         -1.055624        1.000000        0.00031621        0.00022197
     217         -1.055288        1.000000        0.00004145        0.00016746
     218         -1.054828        1.000000        0.00014474        0.00005569
     219         -1.054413        1.000000        0.00019229        0.00013684
     220         -1.053990        1.000000        0.00000337        0.00001046
     221         -1.053598        1.000000        0.00006714        0.00009395
     222         -1.053387        1.000000        0.00001427        0.00004782
     223         -1.052953        1.000000        0.00000261        0.00001096
     224         -1.052779        1.000000        0.00004278        0.00002178
     225         -1.052376        1.000000        0.00002705        0.00003257
     226         -1.052297        1.000000        0.00001575        0.00002823
     227         -1.051819        1.000000        0.00006006        0.00003080
     228         -1.051536        1.000000        0.00003160        0.00000406
     229         -1.051232        1.000000        0.00039426        0.00021008
     230         -1.050581        1.000000        0.00019883        0.00021745
     231         -1.050140        1.000000        0.00021099        0.00054539
     232         -1.049834        1.000000        0.00006325        0.00001541
     233         -1.049588        1.000000        0.00000236        0.00002053
     234         -1.049506        1.000000        0.00000579        0.00000659
     235         -1.048565        1.000000        0.00001328        0.00007340
     236         -1.048103        1.000000        0.00001964        0.00002151
     237         -1.048023        1.000000        0.00008254        0.00007093
     238         -1.047651        1.000000        0.00001320        0.00003512
     239         -1.047305        1.000000        0.00001054        0.00000765
     240         -1.046707        1.000000        0.00000079        0.00003836
     241         -1.046592        1.000000        0.00002710        0.00007302
     242         -1.046281        1.000000        0.00001099        0.00000560
     243         -1.045974        1.000000        0.00022502        0.00025996
     244         -1.045866        1.000000        0.00003649        0.00002462
     245         -1.045771        1.000000        0.00004625        0.00003056
     246         -1.045301        1.000000        0.00024615        0.00032651
     247         -1.045020        1.000000        0.00005112        0.00002676
     248         -1.043956        1.000000        0.00005529        0.00002137
     249         -1.043818        1.000000        0.00000048        0.00010579
     250         -1.043244        1.000000        0.00029456        0.00024756
     251         -1.043119        1.000000        0.00000057        0.00000251
     252         -1.042993        1.000000        0.00006422        0.00006599
     253         -1.042515        1.000000        0.00003739        0.00001786
     254         -1.041302        1.000000        0.00001601        0.00001564
     255         -1.041116        1.000000        0.00013670        0.00011226
     256         -1.040594        1.000000        0.00005931        0.00008360
     257         -1.040094        1.000000        0.00003344        0.00007252
     258         -1.039599        1.000000        0.00007554        0.00019792
     259         -1.039408        1.000000        0.00001572        0.00000955
     260         -1.038970        1.000000        0.00002681        0.00004287
     261         -1.038561        1.000000        0.00001195        0.00001499
     262         -1.038022        1.000000        0.00000607        0.00000563
     263         -1.037841        1.000000        0.00005140        0.00005457
     264         -1.036991        1.000000        0.00006112        0.00014955
     265         -1.036854        1.000000        0.00008594        0.00014626
     266         -1.035910        1.000000        0.00000119        0.00000029
     267         -1.035115        1.000000        0.00009089        0.00044617
     268         -1.034275        1.000000        0.00000293        0.00002370
     269         -1.033697        1.000000        0.00000808        0.00003695
     270         -1.033444        1.000000        0.00001319        0.00004678
     271         -1.033385        1.000000        0.00003688        0.00004203
     272         -1.033262        1.000000        0.00000302        0.00002530
     273         -1.032346        1.000000        0.00000787        0.00000596
     274         -1.031626        1.000000        0.00000032        0.00000342
     275         -1.030746        1.000000        0.00000007        0.00000040
     276         -1.029780        1.000000        0.00000048        0.00000569
     277         -1.028980        1.000000        0.00000014        0.00000006
     278         -1.027492        1.000000        0.00010600        0.00005181
     279         -1.025795        1.000000        0.00000386        0.00000152
     280         -1.023990        1.000000        0.00000186        0.00000066
     281         -1.022755        1.000000        0.00000016        0.00000008
     282         -1.019871        1.000000        0.00000069        0.00000047
     283         -1.017737        1.000000        0.00672835        0.00289711
     284         -1.012409        1.000000        0.00000022        0.00000054
     285         -1.010522        1.000000        0.00000001        0.00000001
     286         -0.880961        1.000000        0.00000055        0.00006074
     287         -0.861761        1.000000        0.00000028        0.00007994
     288         -0.860652        1.000000        0.00000018        0.00005630
     289         -0.854811        1.000000        0.00000003        0.00001430
     290         -0.853189        1.000000        0.00000000        0.00002518
     291         -0.838407        1.000000        0.00000021        0.00003771
     292         -0.837131        1.000000        0.00000001        0.00001009
     293         -0.835422        1.000000        0.00000016        0.00002437
     294         -0.832873        1.000000        0.00000056        0.00009031
     295         -0.813092        1.000000        0.00000128        0.00002863
     296         -0.811309        1.000000        0.00000007        0.00000568
     297         -0.805633        1.000000        0.00000031        0.00007637
     298         -0.800994        1.000000        0.00000023        0.00000958
     299         -0.798544        1.000000        0.00000043        0.00004048
     300         -0.797176        1.000000        0.00000021        0.00000250
     301         -0.796065        1.000000        0.00000042        0.00001695
     302         -0.795247        1.000000        0.00000124        0.00004329
     303         -0.794465        1.000000        0.00000011        0.00000434
     304         -0.792558        1.000000        0.00000080        0.00000916
     305         -0.791532        1.000000        0.00000093        0.00000714
     306         -0.790931        1.000000        0.00000029        0.00000649
     307         -0.790366        1.000000        0.00000069        0.00008687
     308         -0.787916        1.000000        0.00000017        0.00001230
     309         -0.786681        1.000000        0.00000039        0.00002658
     310         -0.785900        1.000000        0.00000012        0.00001308
     311         -0.785502        1.000000        0.00000054        0.00001161
     312         -0.784837        1.000000        0.00000019        0.00000746
     313         -0.783950        1.000000        0.00000101        0.00001994
     314         -0.783030        1.000000        0.00000049        0.00000274
     315         -0.781274        1.000000        0.00000026        0.00001332
     316         -0.780386        1.000000        0.00000081        0.00000934
     317         -0.779166        1.000000        0.00000001        0.00001494
     318         -0.778511        1.000000        0.00000056        0.00002053
     319         -0.774158        1.000000        0.00000032        0.00000397
     320         -0.771889        1.000000        0.00000009        0.00000174
     321         -0.771572        1.000000        0.00000026        0.00000700
     322         -0.771179        1.000000        0.00000036        0.00000921
     323         -0.768785        1.000000        0.00000009        0.00000695
     324         -0.767359        1.000000        0.00000052        0.00000427
     325         -0.766584        1.000000        0.00000017        0.00000510
     326         -0.766329        1.000000        0.00000112        0.00001687
     327         -0.765063        1.000000        0.00000006        0.00000126
     328         -0.764345        1.000000        0.00000022        0.00000060
     329         -0.763991        1.000000        0.00000021        0.00001186
     330         -0.763040        1.000000        0.00000080        0.00001474
     331         -0.762394        1.000000        0.00000022        0.00000279
     332         -0.761901        1.000000        0.00000135        0.00001902
     333         -0.761725        1.000000        0.00000204        0.00001338
     334         -0.760117        1.000000        0.00000012        0.00000080
     335         -0.759732        1.000000        0.00000033        0.00000780
     336         -0.759057        1.000000        0.00000104        0.00001343
     337         -0.757838        1.000000        0.00000004        0.00000048
     338         -0.754831        1.000000        0.00000046        0.00000237
     339         -0.753708        1.000000        0.00000012        0.00000086
     340         -0.753375        1.000000        0.00000132        0.00001803
     341         -0.751671        1.000000        0.00000212        0.00002170
     342         -0.750037        1.000000        0.00000084        0.00000913
     343         -0.749186        1.000000        0.00000034        0.00000644
     344         -0.748889        1.000000        0.00000010        0.00000088
     345         -0.746995        1.000000        0.00000139        0.00001169
     346         -0.718177        1.000000        0.00000111        0.00000501
     347         -0.705802        1.000000        0.00000691        0.00002276
     348         -0.703896        1.000000        0.00000045        0.00000289
     349         -0.699323        1.000000        0.00000232        0.00000627
     350         -0.697252        1.000000        0.00000145        0.00000512
     351         -0.695572        1.000000        0.00000801        0.00001323
     352         -0.690990        1.000000        0.00000734        0.00002113
     353         -0.687608        1.000000        0.00000290        0.00000338
     354         -0.686710        1.000000        0.00000265        0.00000294
     355         -0.685600        1.000000        0.00000600        0.00000662
     356         -0.681933        1.000000        0.00000768        0.00000748
     357         -0.681818        1.000000        0.00000838        0.00003707
     358         -0.680598        1.000000        0.00000166        0.00000343
     359         -0.677631        1.000000        0.00000218        0.00000183
     360         -0.676231        1.000000        0.00000333        0.00000821
     361         -0.675184        1.000000        0.00000252        0.00000311
     362         -0.673914        1.000000        0.00000029        0.00000483
     363         -0.670819        1.000000        0.00000482        0.00001404
     364         -0.668535        1.000000        0.00001362        0.00002402
     365         -0.666745        1.000000        0.00000046        0.00002990
     366         -0.665099        1.000000        0.00000578        0.00000603
     367         -0.664004        1.000000        0.00000021        0.00000376
     368         -0.662322        1.000000        0.00002208        0.00002371
     369         -0.662102        1.000000        0.00000310        0.00000034
     370         -0.660198        1.000000        0.00001122        0.00000628
     371         -0.658748        1.000000        0.00000330        0.00000831
     372         -0.658127        1.000000        0.00000232        0.00000280
     373         -0.656827        1.000000        0.00000531        0.00001819
     374         -0.654564        1.000000        0.00000553        0.00000878
     375         -0.653081        1.000000        0.00000004        0.00001248
     376         -0.649207        1.000000        0.00000012        0.00003593
     377         -0.648953        1.000000        0.00000028        0.00000696