# Projected DOS for list 28 of 1 atoms, at iteration step i = 0, E(Fermi) =    -0.237583 a.u.
#     MO Eigenvalue [a.u.]      Occupation                 s                 p                 d
       1         -3.115895        1.000000        0.00000000        0.00000000        0.00000000
       2         -3.112717        1.000000        0.00000000        0.00000000        0.00000000
       3         -3.112103        1.000000        0.00000000        0.00000000        0.00000000
       4         -3.111180        1.000000        0.00000000        0.00000000        0.00000000
       5         -3.110810        1.000000        0.00000000        0.00000000        0.00000000
       6         -3.110575        1.000000        0.00000000        0.00000000        0.00000000
       7         -3.110067        1.000000        0.00000000        0.00000000        0.00000000
       8         -3.109817        1.000000        0.00000000        0.00000000        0.00000000
       9         -3.109660        1.000000        0.00000000        0.00000000        0.00000000
      10         -3.108831        1.000000        0.00000000        0.00000000        0.00000000
      11         -3.108678        1.000000        0.00000000        0.00000000        0.00000000
      12         -3.108578        1.000000        0.00000000        0.00000000        0.00000000
      13         -3.108350        1.000000        0.00000000        0.00000000        0.00000000
      14         -3.108163        1.000000        0.00000000        0.00000000        0.00000000
      15         -3.107948        1.000000        0.00000000        0.00000000        0.00000000
      16         -3.107865        1.000000        0.00000000        0.00000000        0.00000000
      17         -3.107703        1.000000        0.00000000        0.00000000        0.00000000
      18         -3.107683        1.000000        0.00000000        0.00000000        0.00000000
      19         -3.107641        1.000000        0.00000000        0.00000000        0.00000000
      20         -3.107604        1.000000        0.00000000        0.00000000        0.00000000
      21         -3.107402        1.000000        0.00000000        0.00000000        0.00000000
      22         -3.107115        1.000000        0.00000000        0.00000000        0.00000000
      23         -3.107013        1.000000        0.00000000        0.00000000        0.00000000
      24         -3.106750        1.000000        0.00000000        0.00000000        0.00000000
      25         -3.106619        1.000000        0.00000000        0.00000000        0.00000000
      26         -3.106567        1.000000        0.00000000        0.00000000        0.00000000
      27         -3.106546        1.000000        0.00000000        0.00000000        0.00000000
      28         -3.106258        1.000000        0.00000000        0.00000000        0.00000000
      29         -3.106103        1.000000        0.00000000        0.00000000        0.00000000
      30         -3.104674        1.000000        0.00000000        0.00000000        0.00000000
      31         -1.775522        1.000000        0.00000000        0.00000000        0.00000000
      32         -1.773964        1.000000        0.00000000        0.00000000        0.00000000
      33         -1.773454        1.000000        0.00000000        0.00000000        0.00000000
      34         -1.773008        1.000000        0.00000000        0.00000000        0.00000000
      35         -1.772581        1.000000        0.00000000        0.00000000        0.00000000
      36         -1.772213        1.000000        0.00000000        0.00000000        0.00000000
      37         -1.771852        1.000000        0.00000000        0.00000000        0.00000000
      38         -1.771444        1.000000        0.00000000        0.00000000        0.00000000
      39         -1.771233        1.000000        0.00000000        0.00000000        0.00000000
      40         -1.770977        1.000000        0.00000000        0.00000000        0.00000000
      41         -1.770760        1.000000        0.00000000        0.00000000        0.00000000
      42         -1.770111        1.000000        0.00000000        0.00000000        0.00000000
      43         -1.770034        1.000000        0.00000000        0.00000000        0.00000000
      44         -1.769495        1.000000        0.00000000        0.00000000        0.00000000
      45         -1.769421        1.000000        0.00000000        0.00000000        0.00000000
      46         -1.769063        1.000000        0.00000000        0.00000000        0.00000000
      47         -1.768532        1.000000        0.00000000        0.00000000        0.00000000
      48         -1.768412        1.000000        0.00000000        0.00000000        0.00000000
      49         -1.767811        1.000000        0.00000000        0.00000000        0.00000000
      50         -1.767614        1.000000        0.00000000        0.00000000        0.00000000
      51         -1.767477        1.000000        0.00000000        0.00000000        0.00000000
      52         -1.765531        1.000000        0.00000000        0.00000000        0.00000000
      53         -1.765088        1.000000        0.00000000        0.00000000        0.00000000
      54         -1.764557        1.000000        0.00000000        0.00000000        0.00000000
      55         -1.763772        1.000000        0.00000000        0.00000000        0.00000000
      56         -1.763328        1.000000        0.00000000        0.00000000        0.00000000
      57         -1.762925        1.000000        0.00000000        0.00000000        0.00000000
      58         -1.762506        1.000000        0.00000000        0.00000000        0.00000000
      59         -1.762119        1.000000        0.00000000        0.00000000        0.00000000
      60         -1.762053        1.000000        0.00000000        0.00000000        0.00000000
      61         -1.761895        1.000000        0.00000000        0.00000000        0.00000000
      62         -1.761602        1.000000        0.00000000        0.00000000        0.00000000
      63         -1.761509        1.000000        0.00000000        0.00000000        0.00000000
      64         -1.761377        1.000000        0.00000000        0.00000000        0.00000000
      65         -1.761171        1.000000        0.00000000        0.00000000        0.00000000
      66         -1.760998        1.000000        0.00000000        0.00000000        0.00000000
      67         -1.760877        1.000000        0.00000000        0.00000000        0.00000000
      68         -1.760806        1.000000        0.00000000        0.00000000        0.00000000
      69         -1.760684        1.000000        0.00000000        0.00000000        0.00000000
      70         -1.760645        1.000000        0.00000000        0.00000000        0.00000000
      71         -1.760442        1.000000        0.00000000        0.00000000        0.00000000
      72         -1.760098        1.000000        0.00000000        0.00000000        0.00000000
      73         -1.759962        1.000000        0.00000000        0.00000000        0.00000000
      74         -1.759824        1.000000        0.00000000        0.00000000        0.00000000
      75         -1.759787        1.000000        0.00000000        0.00000000        0.00000000
      76         -1.759638        1.000000        0.00000000        0.00000000        0.00000000
      77         -1.759601        1.000000        0.00000000        0.00000000        0.00000000
      78         -1.759512        1.000000        0.00000000        0.00000000        0.00000000
      79         -1.759406        1.000000        0.00000000        0.00000000        0.00000000
      80         -1.759287        1.000000        0.00000000        0.00000000        0.00000000
      81         -1.759176        1.000000        0.00000000        0.00000000        0.00000000
      82         -1.758872        1.000000        0.00000000        0.00000000        0.00000000
      83         -1.758781        1.000000        0.00000000        0.00000000        0.00000000
      84         -1.758726        1.000000        0.00000000        0.00000000        0.00000000
      85         -1.758559        1.000000        0.00000000        0.00000000        0.00000000
      86         -1.758378        1.000000        0.00000000        0.00000000        0.00000000
      87         -1.758294        1.000000        0.00000000        0.00000000        0.00000000
      88         -1.758087        1.000000        0.00000000        0.00000000        0.00000000
      89         -1.757987        1.000000        0.00000000        0.00000000        0.00000000
      90         -1.757734        1.000000        0.00000000        0.00000000        0.00000000
      91         -1.757649        1.000000        0.00000000        0.00000000        0.00000000
      92         -1.757529        1.000000        0.00000000        0.00000000        0.00000000
      93         -1.757404        1.000000        0.00000000        0.00000000        0.00000000
      94         -1.757324        1.000000        0.00000000        0.00000000        0.00000000
      95         -1.757187        1.000000        0.00000000        0.00000000        0.00000000
      96         -1.757137        1.000000        0.00000000        0.00000000        0.00000000
      97         -1.756770        1.000000        0.00000000        0.00000000        0.00000000
      98         -1.756598        1.000000        0.00000000        0.00000000        0.00000000
      99         -1.756513        1.000000        0.00000000        0.00000000        0.00000000
     100         -1.756186        1.000000        0.00000000        0.00000000        0.00000000
     101         -1.755847        1.000000        0.00000000        0.00000000        0.00000000
     102         -1.755716        1.000000        0.00000000        0.00000000        0.00000000
     103         -1.755306        1.000000        0.00000000        0.00000000        0.00000000
     104         -1.755052        1.000000        0.00000000        0.00000000        0.00000000
     105         -1.754765        1.000000        0.00000000        0.00000000        0.00000000
     106         -1.754094        1.000000        0.00000000        0.00000000        0.00000000
     107         -1.753681        1.000000        0.00000000        0.00000000        0.00000000
     108         -1.753548        1.000000        0.00000000        0.00000000        0.00000000
     109         -1.753256        1.000000        0.00000000        0.00000000        0.00000000
     110         -1.752675        1.000000        0.00000000        0.00000000        0.00000000
     111         -1.752502        1.000000        0.00000000        0.00000000        0.00000000
     112         -1.752253        1.000000        0.00000000        0.00000000        0.00000000
     113         -1.751643        1.000000        0.00000000        0.00000000        0.00000000
     114         -1.751317        1.000000        0.00000000        0.00000000        0.00000000
     115         -1.749193        1.000000        0.00000000        0.00000000        0.00000000
     116         -1.748137        1.000000        0.00000000        0.00000000        0.00000000
     117         -1.747283        1.000000        0.00000000        0.00000000        0.00000000
     118         -1.745962        1.000000        0.00000000        0.00000000        0.00000000
     119         -1.745880        1.000000        0.00000000        0.00000000        0.00000000
     120         -1.744143        1.000000        0.00000000        0.00000000        0.00000000
     121         -1.145318        1.000000        0.00011779        0.00002778        0.00000719
     122         -1.141162        1.000000        0.00014359        0.00005689        0.00001658
     123         -1.135518        1.000000        0.00236815        0.00118582        0.00037046
     124         -1.134356        1.000000        0.00221942        0.00029919        0.00014866
     125         -1.132797        1.000000        0.00098619        0.00011954        0.00007857
     126         -1.131675        1.000000        0.00057035        0.00113952        0.00024449
     127         -1.130657        1.000000        0.00018867        0.00042160        0.00011251
     128         -1.129329        1.000000        0.00476352        0.00157951        0.00065996
     129         -1.127805        1.000000        0.00008359        0.00017164        0.00005141
     130         -1.126970        1.000000        0.00264297        0.00034503        0.00019954
     131         -1.125100        1.000000        0.00481684        0.00220675        0.00087522
     132         -1.124640        1.000000        0.00001741        0.00035452        0.00008029
     133         -1.122028        1.000000        0.00176379        0.00117692        0.00043163
     134         -1.120887        1.000000        0.00252218        0.00528546        0.00144888
     135         -1.119308        1.000000        0.00525773        0.00061314        0.00030382
     136         -1.118408        1.000000        0.01208641        0.01159053        0.00342826
     137         -1.117769        1.000000        0.00804799        0.00512211        0.00120285
     138         -1.116570        1.000000        0.00001430        0.00055966        0.00014114
     139         -1.115096        1.000000        0.00131735        0.00141033        0.00033124
     140         -1.114402        1.000000        0.00056570        0.00145300        0.00034840
     141         -1.114039        1.000000        0.00071452        0.00056298        0.00023520
     142         -1.112381        1.000000        0.00475271        0.00401413        0.00118270
     143         -1.111588        1.000000        0.00322182        0.00126754        0.00050855
     144         -1.111356        1.000000        0.00261347        0.00040280        0.00012223
     145         -1.110913        1.000000        0.00059143        0.00036195        0.00014960
     146         -1.109631        1.000000        0.00290700        0.00072507        0.00034674
     147         -1.107338        1.000000        0.00002382        0.00035429        0.00007025
     148         -1.107163        1.000000        0.00153132        0.00107861        0.00024640
     149         -1.106911        1.000000        0.01494046        0.00039353        0.00080468
     150         -1.105904        1.000000        0.00013816        0.00081915        0.00022497
     151         -1.104513        1.000000        0.00010380        0.00065991        0.00014140
     152         -1.103753        1.000000        0.00341572        0.00052145        0.00006688
     153         -1.103233        1.000000        0.00047354        0.00057716        0.00022509
     154         -1.101116        1.000000        0.00086187        0.00196075        0.00035386
     155         -1.099878        1.000000        0.00120723        0.00090215        0.00035958
     156         -1.099527        1.000000        0.00615969        0.00083988        0.00009914
     157         -1.099360        1.000000        0.00001177        0.00067354        0.00018170
     158         -1.097449        1.000000        0.00094531        0.00069499        0.00016118
     159         -1.097246        1.000000        0.00191477        0.00288291        0.00077468
     160         -1.096336        1.000000        0.00431024        0.00297526        0.00119836
     161         -1.095776        1.000000        0.00060925        0.00301452        0.00100754
     162         -1.094258        1.000000        0.00047507        0.00050995        0.00023062
     163         -1.093701        1.000000        0.00225539        0.00114321        0.00034652
     164         -1.093107        1.000000        0.00176434        0.00143254        0.00068797
     165         -1.091600        1.000000        0.00015313        0.00075959        0.00031470
     166         -1.090890        1.000000        0.00237657        0.00102057        0.00018385
     167         -1.090283        1.000000        0.00036919        0.00315185        0.00073677
     168         -1.089378        1.000000        0.00279003        0.00491406        0.00180899
     169         -1.088506        1.000000        0.00083439        0.00116240        0.00025258
     170         -1.086931        1.000000        0.00083024        0.00379184        0.00129947
     171         -1.086367        1.000000        0.00021238        0.00003949        0.00000776
     172         -1.085327        1.000000        0.00004847        0.00158102        0.00056607
     173         -1.084766        1.000000        0.00170696        0.00033182        0.00010494
     174         -1.083961        1.000000        0.00469790        0.01405768        0.00496172
     175         -1.082920        1.000000        0.00009142        0.00079935        0.00029758
     176         -1.081700        1.000000        0.00053022        0.00323754        0.00106031
     177         -1.081031        1.000000        0.00013683        0.00248976        0.00091418
     178         -1.080558        1.000000        0.00004690        0.00182366        0.00059903
     179         -1.080415        1.000000        0.00020786        0.00183133        0.00070597
     180         -1.080047        1.000000        0.00005296        0.00467781        0.00160743
     181         -1.077309        1.000000        0.00116212        0.00075681        0.00035772
     182         -1.076601        1.000000        0.00146004        0.00597230        0.00236625
     183         -1.076342        1.000000        0.00002801        0.00036483        0.00011909
     184         -1.076154        1.000000        0.00022523        0.00154402        0.00066547
     185         -1.075469        1.000000        0.00240094        0.00141996        0.00064494
     186         -1.074904        1.000000        0.00157844        0.00389223        0.00119898
     187         -1.074160        1.000000        0.00005241        0.00053728        0.00021370
     188         -1.073364        1.000000        0.00024727        0.00064648        0.00019849
     189         -1.071841        1.000000        0.00205525        0.00148654        0.00081424
     190         -1.071436        1.000000        0.00025743        0.00395843        0.00138372
     191         -1.070358        1.000000        0.00096673        0.00046760        0.00024837
     192         -1.070160        1.000000        0.00066366        0.00114904        0.00056808
     193         -1.069551        1.000000        0.00001919        0.00070581        0.00022435
     194         -1.069042        1.000000        0.00002030        0.00245197        0.00082797
     195         -1.068018        1.000000        0.00039243        0.00063181        0.00021988
     196         -1.067683        1.000000        0.00053947        0.00205986        0.00072507
     197         -1.067094        1.000000        0.00197598        0.00482396        0.00193447
     198         -1.066200        1.000000        0.00013687        0.00182168        0.00073586
     199         -1.065105        1.000000        0.00022997        0.00046540        0.00016985
     200         -1.064600        1.000000        0.00007264        0.00044341        0.00014465
     201         -1.063825        1.000000        0.00027039        0.00051535        0.00028296
     202         -1.063672        1.000000        0.00006871        0.00180605        0.00076502
     203         -1.062915        1.000000        0.00001367        0.00024685        0.00011234
     204         -1.062259        1.000000        0.00006056        0.00188143        0.00082742
     205         -1.061986        1.000000        0.00004519        0.00260293        0.00100737
     206         -1.060822        1.000000        0.00001559        0.00110153        0.00047934
     207         -1.060230        1.000000        0.00002673        0.00106526        0.00040518
     208         -1.059971        1.000000        0.00000033        0.00229934        0.00087790
     209         -1.059399        1.000000        0.00019488        0.00373068        0.00133173
     210         -1.058798        1.000000        0.00008011        0.00053013        0.00021736
     211         -1.058498        1.000000        0.00018466        0.00893931        0.00371323
     212         -1.057049        1.000000        0.00000250        0.00166702        0.00078741
     213         -1.056896        1.000000        0.00011345        0.00727166        0.00355161
     214         -1.056403        1.000000        0.00006531        0.00164565        0.00079653
     215         -1.056079        1.000000        0.00097784        0.01537713        0.00707573
     216         -1.055624        1.000000        0.00003262        0.00009366        0.00003752
     217         -1.055288        1.000000        0.00003749        0.00626806        0.00311244
     218         -1.054828        1.000000        0.00004263        0.00335048        0.00185227
     219         -1.054413        1.000000        0.00001713        0.00221823        0.00078429
     220         -1.053990        1.000000        0.00012996        0.01295484        0.00454131
     221         -1.053598        1.000000        0.00013294        0.02508730        0.00880544
     222         -1.053387        1.000000        0.00000264        0.00030887        0.00013375
     223         -1.052953        1.000000        0.00004279        0.00224046        0.00108550
     224         -1.052779        1.000000        0.00002992        0.00380708        0.00131585
     225         -1.052376        1.000000        0.00007580        0.00463339        0.00144722
     226         -1.052297        1.000000        0.00017718        0.00542128        0.00207442
     227         -1.051819        1.000000        0.00010959        0.00164379        0.00073456
     228         -1.051536        1.000000        0.00002393        0.00237580        0.00085636
     229         -1.051232        1.000000        0.00008704        0.00071244        0.00023567
     230         -1.050581        1.000000        0.00006490        0.01621401        0.00603595
     231         -1.050140        1.000000        0.00007241        0.00486289        0.00183464
     232         -1.049834        1.000000        0.00000609        0.00282121        0.00110787
     233         -1.049588        1.000000        0.00008206        0.03886368        0.01701442
     234         -1.049506        1.000000        0.00001871        0.01168932        0.00554183
     235         -1.048565        1.000000        0.00001100        0.00102867        0.00051144
     236         -1.048103        1.000000        0.00001067        0.00052563        0.00027616
     237         -1.048023        1.000000        0.00000020        0.00181570        0.00071022
     238         -1.047651        1.000000        0.00000413        0.00078119        0.00031612
     239         -1.047305        1.000000        0.00000789        0.00223366        0.00108376
     240         -1.046707        1.000000        0.00000011        0.00014748        0.00006501
     241         -1.046592        1.000000        0.00000011        0.00001240        0.00000592
     242         -1.046281        1.000000        0.00000018        0.00004713        0.00003273
     243         -1.045974        1.000000        0.00000583        0.00010477        0.00004482
     244         -1.045866        1.000000        0.00000333        0.00059499        0.00018581
     245         -1.045771        1.000000        0.00000277        0.00151226        0.00068307
     246         -1.045301        1.000000        0.00001857        0.00034270        0.00013121
     247         -1.045020        1.000000        0.00000474        0.00024406        0.00011769
     248         -1.043956        1.000000        0.00000057        0.00010904        0.00003848
     249         -1.043818        1.000000        0.00000888        0.00001732        0.00000525
     250         -1.043244        1.000000        0.00000798        0.00012269        0.00006353
     251         -1.043119        1.000000        0.00000541        0.00023629        0.00010555
     252         -1.042993        1.000000        0.00004041        0.00135063        0.00065532
     253         -1.042515        1.000000        0.00000053        0.00026102        0.00013154
     254         -1.041302        1.000000        0.00005612        0.00209186        0.00097365
     255         -1.041116        1.000000        0.00000422        0.00019483        0.00008510
     256         -1.040594        1.000000        0.00000250        0.00024819        0.00012472
     257         -1.040094        1.000000        0.00000193        0.00011229        0.00004730
     258         -1.039599        1.000000        0.00000010        0.00012778        0.00004752
     259         -1.039408        1.000000        0.00000192        0.00012685        0.00006142
     260         -1.038970        1.000000        0.00000665        0.00068055        0.00025832
     261         -1.038561        1.000000        0.00000035        0.00049568        0.00025757
     262         -1.038022        1.000000        0.00043042        0.01725422        0.00626375
     263         -1.037841        1.000000        0.00000027        0.00004882        0.00001905
     264         -1.036991        1.000000        0.00000251        0.00336274        0.00155212
     265         -1.036854        1.000000        0.00000069        0.00089495        0.00045987
     266         -1.035910        1.000000        0.00000265        0.00038346        0.00017407
     267         -1.035115        1.000000        0.00000404        0.00049125        0.00025472
     268         -1.034275        1.000000        0.00001480        0.00082075        0.00043278
     269         -1.033697        1.000000        0.00007604        0.00362153        0.00182956
     270         -1.033444        1.000000        0.00000233        0.00055664        0.00026782
     271         -1.033385        1.000000        0.00000843        0.00062683        0.00029868
     272         -1.033262        1.000000        0.00000594        0.00004891        0.00002927
     273         -1.032346        1.000000        0.00000396        0.00016479        0.00007999
     274         -1.031626        1.000000        0.00087430        0.03895546        0.01898884
     275         -1.030746        1.000000        0.00000048        0.00006415        0.00003247
     276         -1.029780        1.000000        0.00000022        0.00000890        0.00000339
     277         -1.028980        1.000000        0.00000787        0.00040948        0.00020833
     278         -1.027492        1.000000        0.00000039        0.00001215        0.00000458
     279         -1.025795        1.000000        0.00000002        0.00000019        0.00000010
     280         -1.023990        1.000000        0.00000021        0.00000130        0.00000038
     281         -1.022755        1.000000        0.00000373        0.00005144        0.00001747
     282         -1.019871        1.000000        0.00162589        0.05416819        0.02615416
     283         -1.017737        1.000000        0.00000003        0.00001109        0.00000512
     284         -1.012409        1.000000        0.00000005        0.00000433        0.00000229
     285         -1.010522        1.000000        0.00000031        0.00000735        0.00000630
     286         -0.880961        1.000000        0.00000000        0.00000000        0.00000000
     287         -0.861761        1.000000        0.00000000        0.00000000        0.00000000
     288         -0.860652        1.000000        0.00000000        0.00000000        0.00000000
     289         -0.854811        1.000000        0.00000000        0.00000000        0.00000000
     290         -0.853189        1.000000        0.00000000        0.00000000        0.00000000
     291         -0.838407        1.000000        0.00000000        0.00000000        0.00000000
     292         -0.837131        1.000000        0.00000000        0.00000000        0.00000000
     293         -0.835422        1.000000        0.00000000        0.00000000        0.00000000
     294         -0.832873        1.000000        0.00000000        0.00000000        0.00000000
     295         -0.813092        1.000000        0.00000000        0.00000000        0.00000000
     296         -0.811309        1.000000        0.00000000        0.00000000        0.00000000
     297         -0.805633        1.000000        0.00000000        0.00000000        0.00000000
     298         -0.800994        1.000000        0.00000000        0.00000000        0.00000000
     299         -0.798544        1.000000        0.00000000        0.00000000        0.00000000
     300         -0.797176        1.000000        0.00000000        0.00000000        0.00000000
     301         -0.796065        1.000000        0.00000000        0.00000000        0.00000000
     302         -0.795247        1.000000        0.00000000        0.00000000        0.00000000
     303         -0.794465        1.000000        0.00000000        0.00000000        0.00000000
     304         -0.792558        1.000000        0.00000000        0.00000000        0.00000000
     305         -0.791532        1.000000        0.00000000        0.00000000        0.00000000
     306         -0.790931        1.000000        0.00000000        0.00000000        0.00000000
     307         -0.790366        1.000000        0.00000000        0.00000000        0.00000000