# Projected DOS for list 130 of 1 atoms, at iteration step i = 0, E(Fermi) =    -0.237583 a.u.
#     MO Eigenvalue [a.u.]      Occupation                 s                 p                 d
       1         -3.115895        1.000000        0.00000000        0.00000000        0.00000000
       2         -3.112717        1.000000        0.00000000        0.00000000        0.00000000
       3         -3.112103        1.000000        0.00000000        0.00000000        0.00000000
       4         -3.111180        1.000000        0.00000000        0.00000000        0.00000000
       5         -3.110810        1.000000        0.00000000        0.00000000        0.00000000
       6         -3.110575        1.000000        0.00000000        0.00000000        0.00000000
       7         -3.110067        1.000000        0.00000000        0.00000000        0.00000000
       8         -3.109817        1.000000        0.00000000        0.00000000        0.00000000
       9         -3.109660        1.000000        0.00000000        0.00000000        0.00000000
      10         -3.108831        1.000000        0.00000000        0.00000000        0.00000000
      11         -3.108678        1.000000        0.00000000        0.00000000        0.00000000
      12         -3.108578        1.000000        0.00000000        0.00000000        0.00000000
      13         -3.108350        1.000000        0.00000000        0.00000000        0.00000000
      14         -3.108163        1.000000        0.00000000        0.00000000        0.00000000
      15         -3.107948        1.000000        0.00000000        0.00000000        0.00000000
      16         -3.107865        1.000000        0.00000000        0.00000000        0.00000000
      17         -3.107703        1.000000        0.00000000        0.00000000        0.00000000
      18         -3.107683        1.000000        0.00000000        0.00000000        0.00000000
      19         -3.107641        1.000000        0.00000000        0.00000000        0.00000000
      20         -3.107604        1.000000        0.00000000        0.00000000        0.00000000
      21         -3.107402        1.000000        0.00000000        0.00000000        0.00000000
      22         -3.107115        1.000000        0.00000000        0.00000000        0.00000000
      23         -3.107013        1.000000        0.00000000        0.00000000        0.00000000
      24         -3.106750        1.000000        0.00000000        0.00000000        0.00000000
      25         -3.106619        1.000000        0.00000000        0.00000000        0.00000000
      26         -3.106567        1.000000        0.00000000        0.00000000        0.00000000
      27         -3.106546        1.000000        0.00000000        0.00000000        0.00000000
      28         -3.106258        1.000000        0.00000000        0.00000000        0.00000000
      29         -3.106103        1.000000        0.00000000        0.00000000        0.00000000
      30         -3.104674        1.000000        0.00000000        0.00000000        0.00000000
      31         -1.775522        1.000000        0.00000000        0.00000000        0.00000000
      32         -1.773964        1.000000        0.00000000        0.00000000        0.00000000
      33         -1.773454        1.000000        0.00000000        0.00000000        0.00000000
      34         -1.773008        1.000000        0.00000000        0.00000000        0.00000000
      35         -1.772581        1.000000        0.00000000        0.00000000        0.00000000
      36         -1.772213        1.000000        0.00000000        0.00000000        0.00000000
      37         -1.771852        1.000000        0.00000000        0.00000000        0.00000000
      38         -1.771444        1.000000        0.00000000        0.00000000        0.00000000
      39         -1.771233        1.000000        0.00000000        0.00000000        0.00000000
      40         -1.770977        1.000000        0.00000000        0.00000000        0.00000000
      41         -1.770760        1.000000        0.00000000        0.00000000        0.00000000
      42         -1.770111        1.000000        0.00000000        0.00000000        0.00000000
      43         -1.770034        1.000000        0.00000000        0.00000000        0.00000000
      44         -1.769495        1.000000        0.00000000        0.00000000        0.00000000
      45         -1.769421        1.000000        0.00000000        0.00000000        0.00000000
      46         -1.769063        1.000000        0.00000000        0.00000000        0.00000000
      47         -1.768532        1.000000        0.00000000        0.00000000        0.00000000
      48         -1.768412        1.000000        0.00000000        0.00000000        0.00000000
      49         -1.767811        1.000000        0.00000000        0.00000000        0.00000000
      50         -1.767614        1.000000        0.00000000        0.00000000        0.00000000
      51         -1.767477        1.000000        0.00000000        0.00000000        0.00000000
      52         -1.765531        1.000000        0.00000000        0.00000000        0.00000000
      53         -1.765088        1.000000        0.00000000        0.00000000        0.00000000
      54         -1.764557        1.000000        0.00000000        0.00000000        0.00000000
      55         -1.763772        1.000000        0.00000000        0.00000000        0.00000000
      56         -1.763328        1.000000        0.00000000        0.00000000        0.00000000
      57         -1.762925        1.000000        0.00000000        0.00000000        0.00000000
      58         -1.762506        1.000000        0.00000000        0.00000000        0.00000000
      59         -1.762119        1.000000        0.00000000        0.00000000        0.00000000
      60         -1.762053        1.000000        0.00000000        0.00000000        0.00000000
      61         -1.761895        1.000000        0.00000000        0.00000000        0.00000000
      62         -1.761602        1.000000        0.00000000        0.00000000        0.00000000
      63         -1.761509        1.000000        0.00000000        0.00000000        0.00000000
      64         -1.761377        1.000000        0.00000000        0.00000000        0.00000000
      65         -1.761171        1.000000        0.00000000        0.00000000        0.00000000
      66         -1.760998        1.000000        0.00000000        0.00000000        0.00000000
      67         -1.760877        1.000000        0.00000000        0.00000000        0.00000000
      68         -1.760806        1.000000        0.00000000        0.00000000        0.00000000
      69         -1.760684        1.000000        0.00000000        0.00000000        0.00000000
      70         -1.760645        1.000000        0.00000000        0.00000000        0.00000000
      71         -1.760442        1.000000        0.00000000        0.00000000        0.00000000
      72         -1.760098        1.000000        0.00000000        0.00000000        0.00000000
      73         -1.759962        1.000000        0.00000000        0.00000000        0.00000000
      74         -1.759824        1.000000        0.00000000        0.00000000        0.00000000
      75         -1.759787        1.000000        0.00000000        0.00000000        0.00000000
      76         -1.759638        1.000000        0.00000000        0.00000000        0.00000000
      77         -1.759601        1.000000        0.00000000        0.00000000        0.00000000
      78         -1.759512        1.000000        0.00000000        0.00000000        0.00000000
      79         -1.759406        1.000000        0.00000000        0.00000000        0.00000000
      80         -1.759287        1.000000        0.00000000        0.00000000        0.00000000
      81         -1.759176        1.000000        0.00000000        0.00000000        0.00000000
      82         -1.758872        1.000000        0.00000000        0.00000000        0.00000000
      83         -1.758781        1.000000        0.00000000        0.00000000        0.00000000
      84         -1.758726        1.000000        0.00000000        0.00000000        0.00000000
      85         -1.758559        1.000000        0.00000000        0.00000000        0.00000000
      86         -1.758378        1.000000        0.00000000        0.00000000        0.00000000
      87         -1.758294        1.000000        0.00000000        0.00000000        0.00000000
      88         -1.758087        1.000000        0.00000000        0.00000000        0.00000000
      89         -1.757987        1.000000        0.00000000        0.00000000        0.00000000
      90         -1.757734        1.000000        0.00000000        0.00000000        0.00000000
      91         -1.757649        1.000000        0.00000000        0.00000000        0.00000000
      92         -1.757529        1.000000        0.00000000        0.00000000        0.00000000
      93         -1.757404        1.000000        0.00000000        0.00000000        0.00000000
      94         -1.757324        1.000000        0.00000000        0.00000000        0.00000000
      95         -1.757187        1.000000        0.00000000        0.00000000        0.00000000
      96         -1.757137        1.000000        0.00000000        0.00000000        0.00000000
      97         -1.756770        1.000000        0.00000000        0.00000000        0.00000000
      98         -1.756598        1.000000        0.00000000        0.00000000        0.00000000
      99         -1.756513        1.000000        0.00000000        0.00000000        0.00000000
     100         -1.756186        1.000000        0.00000000        0.00000000        0.00000000
     101         -1.755847        1.000000        0.00000000        0.00000000        0.00000000
     102         -1.755716        1.000000        0.00000000        0.00000000        0.00000000
     103         -1.755306        1.000000        0.00000000        0.00000000        0.00000000
     104         -1.755052        1.000000        0.00000000        0.00000000        0.00000000
     105         -1.754765        1.000000        0.00000000        0.00000000        0.00000000
     106         -1.754094        1.000000        0.00000000        0.00000000        0.00000000
     107         -1.753681        1.000000        0.00000000        0.00000000        0.00000000
     108         -1.753548        1.000000        0.00000000        0.00000000        0.00000000
     109         -1.753256        1.000000        0.00000000        0.00000000        0.00000000
     110         -1.752675        1.000000        0.00000000        0.00000000        0.00000000
     111         -1.752502        1.000000        0.00000000        0.00000000        0.00000000
     112         -1.752253        1.000000        0.00000000        0.00000000        0.00000000
     113         -1.751643        1.000000        0.00000000        0.00000000        0.00000000
     114         -1.751317        1.000000        0.00000000        0.00000000        0.00000000
     115         -1.749193        1.000000        0.00000000        0.00000000        0.00000000
     116         -1.748137        1.000000        0.00000000        0.00000000        0.00000000
     117         -1.747283        1.000000        0.00000000        0.00000000        0.00000000
     118         -1.745962        1.000000        0.00000000        0.00000000        0.00000000
     119         -1.745880        1.000000        0.00000000        0.00000000        0.00000000
     120         -1.744143        1.000000        0.00000000        0.00000000        0.00000000
     121         -1.145318        1.000000        0.00029253        0.00011539        0.00001928
     122         -1.141162        1.000000        0.00000499        0.00006891        0.00000938
     123         -1.135518        1.000000        0.00017629        0.00026196        0.00003386
     124         -1.134356        1.000000        0.00007270        0.00025791        0.00006765
     125         -1.132797        1.000000        0.00008306        0.00020810        0.00006092
     126         -1.131675        1.000000        0.00177698        0.00025691        0.00002244
     127         -1.130657        1.000000        0.00055695        0.00089309        0.00020192
     128         -1.129329        1.000000        0.00000311        0.00009952        0.00002328
     129         -1.127805        1.000000        0.00000806        0.00016400        0.00003428
     130         -1.126970        1.000000        0.00000004        0.00013518        0.00003348
     131         -1.125100        1.000000        0.00050766        0.00054720        0.00011250
     132         -1.124640        1.000000        0.00021280        0.00013509        0.00003000
     133         -1.122028        1.000000        0.00041100        0.00060046        0.00010976
     134         -1.120887        1.000000        0.00073697        0.00027830        0.00006182
     135         -1.119308        1.000000        0.00000885        0.00038876        0.00009106
     136         -1.118408        1.000000        0.00030177        0.00016316        0.00004956
     137         -1.117769        1.000000        0.00273685        0.00052826        0.00025103
     138         -1.116570        1.000000        0.00001021        0.00018388        0.00004742
     139         -1.115096        1.000000        0.00433332        0.00289854        0.00083360
     140         -1.114402        1.000000        0.00474680        0.00386376        0.00104297
     141         -1.114039        1.000000        0.00033963        0.00034284        0.00009932
     142         -1.112381        1.000000        0.00122253        0.00091607        0.00021240
     143         -1.111588        1.000000        0.01545308        0.00288201        0.00097852
     144         -1.111356        1.000000        0.00015351        0.00039184        0.00011046
     145         -1.110913        1.000000        0.00336905        0.00084218        0.00031582
     146         -1.109631        1.000000        0.00011035        0.00146860        0.00041143
     147         -1.107338        1.000000        0.00345743        0.00176036        0.00048456
     148         -1.107163        1.000000        0.00934733        0.00297182        0.00085693
     149         -1.106911        1.000000        0.00181678        0.00066570        0.00026666
     150         -1.105904        1.000000        0.01020636        0.00137825        0.00047838
     151         -1.104513        1.000000        0.00093489        0.00142197        0.00039000
     152         -1.103753        1.000000        0.00045842        0.00115711        0.00035066
     153         -1.103233        1.000000        0.00490308        0.00048780        0.00014599
     154         -1.101116        1.000000        0.00523779        0.00237228        0.00084825
     155         -1.099878        1.000000        0.00096102        0.00099320        0.00031557
     156         -1.099527        1.000000        0.00006249        0.00339253        0.00098002
     157         -1.099360        1.000000        0.00177446        0.00082822        0.00028304
     158         -1.097449        1.000000        0.00184978        0.00504494        0.00145977
     159         -1.097246        1.000000        0.00131614        0.00269776        0.00075658
     160         -1.096336        1.000000        0.00385158        0.00040148        0.00015095
     161         -1.095776        1.000000        0.00042325        0.00238847        0.00070307
     162         -1.094258        1.000000        0.00320065        0.00025882        0.00011510
     163         -1.093701        1.000000        0.00284364        0.00320107        0.00117144
     164         -1.093107        1.000000        0.00254359        0.00194875        0.00072162
     165         -1.091600        1.000000        0.00078449        0.00267319        0.00082356
     166         -1.090890        1.000000        0.00078396        0.00149626        0.00055884
     167         -1.090283        1.000000        0.00007245        0.00861183        0.00293138
     168         -1.089378        1.000000        0.00141736        0.00074778        0.00021643
     169         -1.088506        1.000000        0.00037137        0.00341002        0.00112578
     170         -1.086931        1.000000        0.00016661        0.00221532        0.00076452
     171         -1.086367        1.000000        0.00001927        0.00332094        0.00117545
     172         -1.085327        1.000000        0.00002707        0.00048663        0.00018063
     173         -1.084766        1.000000        0.00017425        0.00192958        0.00056193
     174         -1.083961        1.000000        0.00709270        0.01877325        0.00690286
     175         -1.082920        1.000000        0.00068621        0.00220352        0.00078404
     176         -1.081700        1.000000        0.00096741        0.00166833        0.00047957
     177         -1.081031        1.000000        0.00048803        0.00010102        0.00006649
     178         -1.080558        1.000000        0.00154552        0.00532887        0.00209597
     179         -1.080415        1.000000        0.00050289        0.00084064        0.00030420
     180         -1.080047        1.000000        0.00000707        0.00610769        0.00196624
     181         -1.077309        1.000000        0.00010230        0.00064834        0.00017704
     182         -1.076601        1.000000        0.00079882        0.00141486        0.00058543
     183         -1.076342        1.000000        0.00055985        0.00149270        0.00048817
     184         -1.076154        1.000000        0.00039326        0.00053821        0.00025071
     185         -1.075469        1.000000        0.00015307        0.00024313        0.00008658
     186         -1.074904        1.000000        0.00220631        0.00261950        0.00067450
     187         -1.074160        1.000000        0.00000150        0.00187178        0.00059269
     188         -1.073364        1.000000        0.00012476        0.00029476        0.00011416
     189         -1.071841        1.000000        0.00127825        0.00190546        0.00081471
     190         -1.071436        1.000000        0.00005774        0.00108957        0.00040275
     191         -1.070358        1.000000        0.00041249        0.00079411        0.00029560
     192         -1.070160        1.000000        0.00000072        0.00171117        0.00062157
     193         -1.069551        1.000000        0.00040570        0.00015344        0.00004165
     194         -1.069042        1.000000        0.00289218        0.00133451        0.00031359
     195         -1.068018        1.000000        0.00007400        0.00037271        0.00015837
     196         -1.067683        1.000000        0.00149499        0.00458490        0.00128621
     197         -1.067094        1.000000        0.00587916        0.01145140        0.00301792
     198         -1.066200        1.000000        0.00258087        0.00236579        0.00053643
     199         -1.065105        1.000000        0.00005478        0.00002011        0.00000779
     200         -1.064600        1.000000        0.00056094        0.00065018        0.00019618
     201         -1.063825        1.000000        0.00012864        0.00002895        0.00001687
     202         -1.063672        1.000000        0.00050096        0.00038794        0.00016668
     203         -1.062915        1.000000        0.00044007        0.00141928        0.00050079
     204         -1.062259        1.000000        0.00014335        0.00018702        0.00006490
     205         -1.061986        1.000000        0.00000248        0.00016211        0.00006769
     206         -1.060822        1.000000        0.00011337        0.00064119        0.00022497
     207         -1.060230        1.000000        0.00002460        0.00009469        0.00003862
     208         -1.059971        1.000000        0.00001067        0.00013541        0.00005992
     209         -1.059399        1.000000        0.00009475        0.00062810        0.00022705
     210         -1.058798        1.000000        0.00000419        0.00025247        0.00011600
     211         -1.058498        1.000000        0.00000604        0.00018059        0.00006242
     212         -1.057049        1.000000        0.00000487        0.00013604        0.00002305
     213         -1.056896        1.000000        0.00000135        0.00064383        0.00021494
     214         -1.056403        1.000000        0.00000173        0.00019150        0.00006418
     215         -1.056079        1.000000        0.00000566        0.00054382        0.00020471
     216         -1.055624        1.000000        0.00000427        0.00068928        0.00029395
     217         -1.055288        1.000000        0.00001483        0.00599357        0.00224533
     218         -1.054828        1.000000        0.00000190        0.00342475        0.00132874
     219         -1.054413        1.000000        0.00000214        0.00014358        0.00006305
     220         -1.053990        1.000000        0.00000975        0.00044542        0.00017881
     221         -1.053598        1.000000        0.00020555        0.01113667        0.00401106
     222         -1.053387        1.000000        0.00003793        0.00084015        0.00032762
     223         -1.052953        1.000000        0.00001923        0.00022965        0.00009490
     224         -1.052779        1.000000        0.00000295        0.00017528        0.00007113
     225         -1.052376        1.000000        0.00012188        0.00421918        0.00158112
     226         -1.052297        1.000000        0.00001320        0.00343868        0.00147770
     227         -1.051819        1.000000        0.00025442        0.00127682        0.00046284
     228         -1.051536        1.000000        0.00001246        0.00063091        0.00031349
     229         -1.051232        1.000000        0.00006497        0.00218165        0.00093224
     230         -1.050581        1.000000        0.00037965        0.00172711        0.00085210
     231         -1.050140        1.000000        0.00011962        0.00141955        0.00067849
     232         -1.049834        1.000000        0.00007581        0.00621744        0.00261150
     233         -1.049588        1.000000        0.00009563        0.00488186        0.00189391
     234         -1.049506        1.000000        0.00057104        0.01778476        0.00735931
     235         -1.048565        1.000000        0.00006028        0.00686476        0.00254299
     236         -1.048103        1.000000        0.00007751        0.01927958        0.00707543
     237         -1.048023        1.000000        0.00000214        0.00243053        0.00102600
     238         -1.047651        1.000000        0.00001458        0.00074020        0.00028270
     239         -1.047305        1.000000        0.00000924        0.00141813        0.00056160
     240         -1.046707        1.000000        0.00000004        0.00039585        0.00013336
     241         -1.046592        1.000000        0.00000436        0.00024576        0.00009033
     242         -1.046281        1.000000        0.00000220        0.00041000        0.00015905
     243         -1.045974        1.000000        0.00000216        0.00082352        0.00034787
     244         -1.045866        1.000000        0.00004638        0.00593033        0.00244366
     245         -1.045771        1.000000        0.00000421        0.00234398        0.00085980
     246         -1.045301        1.000000        0.00000185        0.00027631        0.00010212
     247         -1.045020        1.000000        0.00000542        0.00009936        0.00007175
     248         -1.043956        1.000000        0.00000469        0.00092680        0.00044801
     249         -1.043818        1.000000        0.00001556        0.00168760        0.00077253
     250         -1.043244        1.000000        0.00001271        0.00015304        0.00008642
     251         -1.043119        1.000000        0.00015241        0.00806497        0.00408357
     252         -1.042993        1.000000        0.00103133        0.04051555        0.01951510
     253         -1.042515        1.000000        0.00014140        0.00759889        0.00334875
     254         -1.041302        1.000000        0.00002191        0.00121469        0.00056976
     255         -1.041116        1.000000        0.00003505        0.00233730        0.00121502
     256         -1.040594        1.000000        0.00000407        0.03382364        0.01386481
     257         -1.040094        1.000000        0.00003643        0.00429654        0.00189793
     258         -1.039599        1.000000        0.00005326        0.00625305        0.00277070
     259         -1.039408        1.000000        0.00013516        0.00256898        0.00122275
     260         -1.038970        1.000000        0.00010848        0.00150377        0.00051855
     261         -1.038561        1.000000        0.00001248        0.00045191        0.00020018
     262         -1.038022        1.000000        0.00011993        0.00031710        0.00009176
     263         -1.037841        1.000000        0.00000133        0.00014342        0.00006336
     264         -1.036991        1.000000        0.00013686        0.00119422        0.00055088
     265         -1.036854        1.000000        0.00008774        0.00084871        0.00039562
     266         -1.035910        1.000000        0.00000005        0.00346338        0.00140032
     267         -1.035115        1.000000        0.00005407        0.00190630        0.00090227
     268         -1.034275        1.000000        0.00024566        0.00909837        0.00434906
     269         -1.033697        1.000000        0.00007372        0.01089169        0.00456580
     270         -1.033444        1.000000        0.00004418        0.00422615        0.00186002
     271         -1.033385        1.000000        0.00007943        0.01110274        0.00480213
     272         -1.033262        1.000000        0.00013071        0.02008952        0.00877928
     273         -1.032346        1.000000        0.00000058        0.00010639        0.00004793
     274         -1.031626        1.000000        0.00011545        0.01466028        0.00695024
     275         -1.030746        1.000000        0.00000001        0.00008101        0.00003236
     276         -1.029780        1.000000        0.00000602        0.00081076        0.00032618
     277         -1.028980        1.000000        0.00000023        0.00004225        0.00002676
     278         -1.027492        1.000000        0.00000035        0.00001780        0.00000885
     279         -1.025795        1.000000        0.00000002        0.00000051        0.00000025
     280         -1.023990        1.000000        0.00000000        0.00000065        0.00000021
     281         -1.022755        1.000000        0.00000054        0.00003502        0.00001483
     282         -1.019871        1.000000        0.00001679        0.00012063        0.00008127
     283         -1.017737        1.000000        0.00000002        0.00000009        0.00000004
     284         -1.012409        1.000000        0.00000003        0.00000167        0.00000046
     285         -1.010522        1.000000        0.00000062        0.00001040        0.00000355
     286         -0.880961        1.000000        0.00000000        0.00000000        0.00000000
     287         -0.861761        1.000000        0.00000000        0.00000000        0.00000000
     288         -0.860652        1.000000        0.00000000        0.00000000        0.00000000
     289         -0.854811        1.000000        0.00000000        0.00000000        0.00000000
     290         -0.853189        1.000000        0.00000000        0.00000000        0.00000000
     291         -0.838407        1.000000        0.00000000        0.00000000        0.00000000
     292         -0.837131        1.000000        0.00000000        0.00000000        0.00000000
     293         -0.835422        1.000000        0.00000000        0.00000000        0.00000000
     294         -0.832873        1.000000        0.00000000        0.00000000        0.00000000
     295         -0.813092        1.000000        0.00000000        0.00000000        0.00000000
     296         -0.811309        1.000000        0.00000000        0.00000000        0.00000000
     297         -0.805633        1.000000        0.00000000        0.00000000        0.00000000
     298         -0.800994        1.000000        0.00000000        0.00000000        0.00000000
     299         -0.798544        1.000000        0.00000000        0.00000000        0.00000000
     300         -0.797176        1.000000        0.00000000        0.00000000        0.00000000
     301         -0.796065        1.000000        0.00000000        0.00000000        0.00000000
     302         -0.795247        1.000000        0.00000000        0.00000000        0.00000000
     303         -0.794465        1.000000        0.00000000        0.00000000        0.00000000
     304         -0.792558        1.000000        0.00000000        0.00000000        0.00000000
     305         -0.791532        1.000000        0.00000000        0.00000000        0.00000000
     306         -0.790931        1.000000        0.00000000        0.00000000        0.00000000
     307         -0.790366        1.000000        0.00000000        0.00000000        0.00000000