# Projected DOS for list 188 of 1 atoms, at iteration step i = 0, E(Fermi) =    -0.237583 a.u.
#     MO Eigenvalue [a.u.]      Occupation                 s                 p                 d
       1         -3.115895        1.000000        0.00000000        0.00000000        0.00000000
       2         -3.112717        1.000000        0.00000000        0.00000000        0.00000000
       3         -3.112103        1.000000        0.00000000        0.00000000        0.00000000
       4         -3.111180        1.000000        0.00000000        0.00000000        0.00000000
       5         -3.110810        1.000000        0.00000000        0.00000000        0.00000000
       6         -3.110575        1.000000        0.00000000        0.00000000        0.00000000
       7         -3.110067        1.000000        0.00000000        0.00000000        0.00000000
       8         -3.109817        1.000000        0.00000000        0.00000000        0.00000000
       9         -3.109660        1.000000        0.00000000        0.00000000        0.00000000
      10         -3.108831        1.000000        0.00000000        0.00000000        0.00000000
      11         -3.108678        1.000000        0.00000000        0.00000000        0.00000000
      12         -3.108578        1.000000        0.00000000        0.00000000        0.00000000
      13         -3.108350        1.000000        0.00000000        0.00000000        0.00000000
      14         -3.108163        1.000000        0.00000000        0.00000000        0.00000000
      15         -3.107948        1.000000        0.00000000        0.00000000        0.00000000
      16         -3.107865        1.000000        0.00000000        0.00000000        0.00000000
      17         -3.107703        1.000000        0.00000000        0.00000000        0.00000000
      18         -3.107683        1.000000        0.00000000        0.00000000        0.00000000
      19         -3.107641        1.000000        0.00000000        0.00000000        0.00000000
      20         -3.107604        1.000000        0.00000000        0.00000000        0.00000000
      21         -3.107402        1.000000        0.00000000        0.00000000        0.00000000
      22         -3.107115        1.000000        0.00000000        0.00000000        0.00000000
      23         -3.107013        1.000000        0.00000000        0.00000000        0.00000000
      24         -3.106750        1.000000        0.00000000        0.00000000        0.00000000
      25         -3.106619        1.000000        0.00000000        0.00000000        0.00000000
      26         -3.106567        1.000000        0.00000000        0.00000000        0.00000000
      27         -3.106546        1.000000        0.00000000        0.00000000        0.00000000
      28         -3.106258        1.000000        0.00000000        0.00000000        0.00000000
      29         -3.106103        1.000000        0.00000000        0.00000000        0.00000000
      30         -3.104674        1.000000        0.00000000        0.00000000        0.00000000
      31         -1.775522        1.000000        0.00000000        0.00000000        0.00000000
      32         -1.773964        1.000000        0.00000000        0.00000000        0.00000000
      33         -1.773454        1.000000        0.00000000        0.00000000        0.00000000
      34         -1.773008        1.000000        0.00000000        0.00000000        0.00000000
      35         -1.772581        1.000000        0.00000000        0.00000000        0.00000000
      36         -1.772213        1.000000        0.00000000        0.00000000        0.00000000
      37         -1.771852        1.000000        0.00000000        0.00000000        0.00000000
      38         -1.771444        1.000000        0.00000000        0.00000000        0.00000000
      39         -1.771233        1.000000        0.00000000        0.00000000        0.00000000
      40         -1.770977        1.000000        0.00000000        0.00000000        0.00000000
      41         -1.770760        1.000000        0.00000000        0.00000000        0.00000000
      42         -1.770111        1.000000        0.00000000        0.00000000        0.00000000
      43         -1.770034        1.000000        0.00000000        0.00000000        0.00000000
      44         -1.769495        1.000000        0.00000000        0.00000000        0.00000000
      45         -1.769421        1.000000        0.00000000        0.00000000        0.00000000
      46         -1.769063        1.000000        0.00000000        0.00000000        0.00000000
      47         -1.768532        1.000000        0.00000000        0.00000000        0.00000000
      48         -1.768412        1.000000        0.00000000        0.00000000        0.00000000
      49         -1.767811        1.000000        0.00000000        0.00000000        0.00000000
      50         -1.767614        1.000000        0.00000000        0.00000000        0.00000000
      51         -1.767477        1.000000        0.00000000        0.00000000        0.00000000
      52         -1.765531        1.000000        0.00000000        0.00000000        0.00000000
      53         -1.765088        1.000000        0.00000000        0.00000000        0.00000000
      54         -1.764557        1.000000        0.00000000        0.00000000        0.00000000
      55         -1.763772        1.000000        0.00000000        0.00000000        0.00000000
      56         -1.763328        1.000000        0.00000000        0.00000000        0.00000000
      57         -1.762925        1.000000        0.00000000        0.00000000        0.00000000
      58         -1.762506        1.000000        0.00000000        0.00000000        0.00000000
      59         -1.762119        1.000000        0.00000000        0.00000000        0.00000000
      60         -1.762053        1.000000        0.00000000        0.00000000        0.00000000
      61         -1.761895        1.000000        0.00000000        0.00000000        0.00000000
      62         -1.761602        1.000000        0.00000000        0.00000000        0.00000000
      63         -1.761509        1.000000        0.00000000        0.00000000        0.00000000
      64         -1.761377        1.000000        0.00000000        0.00000000        0.00000000
      65         -1.761171        1.000000        0.00000000        0.00000000        0.00000000
      66         -1.760998        1.000000        0.00000000        0.00000000        0.00000000
      67         -1.760877        1.000000        0.00000000        0.00000000        0.00000000
      68         -1.760806        1.000000        0.00000000        0.00000000        0.00000000
      69         -1.760684        1.000000        0.00000000        0.00000000        0.00000000
      70         -1.760645        1.000000        0.00000000        0.00000000        0.00000000
      71         -1.760442        1.000000        0.00000000        0.00000000        0.00000000
      72         -1.760098        1.000000        0.00000000        0.00000000        0.00000000
      73         -1.759962        1.000000        0.00000000        0.00000000        0.00000000
      74         -1.759824        1.000000        0.00000000        0.00000000        0.00000000
      75         -1.759787        1.000000        0.00000000        0.00000000        0.00000000
      76         -1.759638        1.000000        0.00000000        0.00000000        0.00000000
      77         -1.759601        1.000000        0.00000000        0.00000000        0.00000000
      78         -1.759512        1.000000        0.00000000        0.00000000        0.00000000
      79         -1.759406        1.000000        0.00000000        0.00000000        0.00000000
      80         -1.759287        1.000000        0.00000000        0.00000000        0.00000000
      81         -1.759176        1.000000        0.00000000        0.00000000        0.00000000
      82         -1.758872        1.000000        0.00000000        0.00000000        0.00000000
      83         -1.758781        1.000000        0.00000000        0.00000000        0.00000000
      84         -1.758726        1.000000        0.00000000        0.00000000        0.00000000
      85         -1.758559        1.000000        0.00000000        0.00000000        0.00000000
      86         -1.758378        1.000000        0.00000000        0.00000000        0.00000000
      87         -1.758294        1.000000        0.00000000        0.00000000        0.00000000
      88         -1.758087        1.000000        0.00000000        0.00000000        0.00000000
      89         -1.757987        1.000000        0.00000000        0.00000000        0.00000000
      90         -1.757734        1.000000        0.00000000        0.00000000        0.00000000
      91         -1.757649        1.000000        0.00000000        0.00000000        0.00000000
      92         -1.757529        1.000000        0.00000000        0.00000000        0.00000000
      93         -1.757404        1.000000        0.00000000        0.00000000        0.00000000
      94         -1.757324        1.000000        0.00000000        0.00000000        0.00000000
      95         -1.757187        1.000000        0.00000000        0.00000000        0.00000000
      96         -1.757137        1.000000        0.00000000        0.00000000        0.00000000
      97         -1.756770        1.000000        0.00000000        0.00000000        0.00000000
      98         -1.756598        1.000000        0.00000000        0.00000000        0.00000000
      99         -1.756513        1.000000        0.00000000        0.00000000        0.00000000
     100         -1.756186        1.000000        0.00000000        0.00000000        0.00000000
     101         -1.755847        1.000000        0.00000000        0.00000000        0.00000000
     102         -1.755716        1.000000        0.00000000        0.00000000        0.00000000
     103         -1.755306        1.000000        0.00000000        0.00000000        0.00000000
     104         -1.755052        1.000000        0.00000000        0.00000000        0.00000000
     105         -1.754765        1.000000        0.00000000        0.00000000        0.00000000
     106         -1.754094        1.000000        0.00000000        0.00000000        0.00000000
     107         -1.753681        1.000000        0.00000000        0.00000000        0.00000000
     108         -1.753548        1.000000        0.00000000        0.00000000        0.00000000
     109         -1.753256        1.000000        0.00000000        0.00000000        0.00000000
     110         -1.752675        1.000000        0.00000000        0.00000000        0.00000000
     111         -1.752502        1.000000        0.00000000        0.00000000        0.00000000
     112         -1.752253        1.000000        0.00000000        0.00000000        0.00000000
     113         -1.751643        1.000000        0.00000000        0.00000000        0.00000000
     114         -1.751317        1.000000        0.00000000        0.00000000        0.00000000
     115         -1.749193        1.000000        0.00000000        0.00000000        0.00000000
     116         -1.748137        1.000000        0.00000000        0.00000000        0.00000000
     117         -1.747283        1.000000        0.00000000        0.00000000        0.00000000
     118         -1.745962        1.000000        0.00000000        0.00000000        0.00000000
     119         -1.745880        1.000000        0.00000000        0.00000000        0.00000000
     120         -1.744143        1.000000        0.00000000        0.00000000        0.00000000
     121         -1.145318        1.000000        0.00342607        0.00043941        0.00011249
     122         -1.141162        1.000000        0.00000967        0.00003087        0.00001206
     123         -1.135518        1.000000        0.00068682        0.00028841        0.00002422
     124         -1.134356        1.000000        0.00250149        0.00009359        0.00007828
     125         -1.132797        1.000000        0.00637559        0.00053198        0.00015755
     126         -1.131675        1.000000        0.00042351        0.00013794        0.00001387
     127         -1.130657        1.000000        0.00000026        0.00001122        0.00000541
     128         -1.129329        1.000000        0.00577603        0.00028919        0.00012290
     129         -1.127805        1.000000        0.00709769        0.00068480        0.00016502
     130         -1.126970        1.000000        0.00345207        0.00015043        0.00006356
     131         -1.125100        1.000000        0.00002151        0.00001264        0.00000869
     132         -1.124640        1.000000        0.03216182        0.00177413        0.00060626
     133         -1.122028        1.000000        0.00462755        0.00027356        0.00006424
     134         -1.120887        1.000000        0.00437750        0.00049693        0.00007626
     135         -1.119308        1.000000        0.00932197        0.00010782        0.00016389
     136         -1.118408        1.000000        0.00110554        0.00003169        0.00001322
     137         -1.117769        1.000000        0.01031565        0.00016813        0.00013302
     138         -1.116570        1.000000        0.00105305        0.00003592        0.00001240
     139         -1.115096        1.000000        0.00153949        0.00002301        0.00002285
     140         -1.114402        1.000000        0.00000436        0.00014346        0.00000091
     141         -1.114039        1.000000        0.00212472        0.00018511        0.00004894
     142         -1.112381        1.000000        0.00019746        0.00003506        0.00000500
     143         -1.111588        1.000000        0.00041205        0.00008371        0.00000310
     144         -1.111356        1.000000        0.00565340        0.00045853        0.00010542
     145         -1.110913        1.000000        0.00000202        0.00005959        0.00002832
     146         -1.109631        1.000000        0.00050558        0.00030391        0.00002106
     147         -1.107338        1.000000        0.02761116        0.00034561        0.00033351
     148         -1.107163        1.000000        0.00719341        0.00012969        0.00007769
     149         -1.106911        1.000000        0.00058793        0.00075916        0.00004933
     150         -1.105904        1.000000        0.00502796        0.00035278        0.00007371
     151         -1.104513        1.000000        0.00020877        0.00007274        0.00002106
     152         -1.103753        1.000000        0.00000457        0.00001914        0.00000882
     153         -1.103233        1.000000        0.04264490        0.00269501        0.00038121
     154         -1.101116        1.000000        0.00165721        0.00018702        0.00002115
     155         -1.099878        1.000000        0.00200354        0.00010660        0.00003795
     156         -1.099527        1.000000        0.00010035        0.00048263        0.00002718
     157         -1.099360        1.000000        0.00280257        0.00016189        0.00003996
     158         -1.097449        1.000000        0.00011429        0.00012518        0.00004331
     159         -1.097246        1.000000        0.00227467        0.00014686        0.00001504
     160         -1.096336        1.000000        0.00080567        0.00002449        0.00002469
     161         -1.095776        1.000000        0.00053759        0.00013115        0.00000390
     162         -1.094258        1.000000        0.00070591        0.00001206        0.00000967
     163         -1.093701        1.000000        0.00009493        0.00001848        0.00000885
     164         -1.093107        1.000000        0.00092024        0.00033165        0.00003891
     165         -1.091600        1.000000        0.00057888        0.00027418        0.00001349
     166         -1.090890        1.000000        0.00475318        0.00037040        0.00003501
     167         -1.090283        1.000000        0.00121475        0.00031629        0.00005900
     168         -1.089378        1.000000        0.00050173        0.00070467        0.00001326
     169         -1.088506        1.000000        0.00428523        0.00005253        0.00001648
     170         -1.086931        1.000000        0.00159958        0.00078816        0.00004092
     171         -1.086367        1.000000        0.00830331        0.00004433        0.00006457
     172         -1.085327        1.000000        0.01850248        0.00011608        0.00011990
     173         -1.084766        1.000000        0.00085866        0.00043680        0.00002058
     174         -1.083961        1.000000        0.00380279        0.00001961        0.00002201
     175         -1.082920        1.000000        0.00267596        0.00025978        0.00005455
     176         -1.081700        1.000000        0.00691167        0.00226092        0.00011650
     177         -1.081031        1.000000        0.00000062        0.00007280        0.00001731
     178         -1.080558        1.000000        0.00222547        0.00002588        0.00002540
     179         -1.080415        1.000000        0.02814550        0.00049844        0.00010969
     180         -1.080047        1.000000        0.00631362        0.00020915        0.00002138
     181         -1.077309        1.000000        0.01958757        0.00048496        0.00009240
     182         -1.076601        1.000000        0.00226655        0.00009322        0.00001658
     183         -1.076342        1.000000        0.00942216        0.00013882        0.00007898
     184         -1.076154        1.000000        0.00121486        0.00000975        0.00002451
     185         -1.075469        1.000000        0.01263027        0.00006138        0.00005199
     186         -1.074904        1.000000        0.00063510        0.00010777        0.00000172
     187         -1.074160        1.000000        0.00238276        0.00005555        0.00004107
     188         -1.073364        1.000000        0.00010708        0.00008323        0.00002490
     189         -1.071841        1.000000        0.00052258        0.00014833        0.00002136
     190         -1.071436        1.000000        0.00010932        0.00001963        0.00003008
     191         -1.070358        1.000000        0.00697446        0.00004684        0.00000645
     192         -1.070160        1.000000        0.00016890        0.00001055        0.00001011
     193         -1.069551        1.000000        0.00727489        0.00008037        0.00002323
     194         -1.069042        1.000000        0.01153845        0.00022450        0.00002262
     195         -1.068018        1.000000        0.00337131        0.00011062        0.00000790
     196         -1.067683        1.000000        0.00039019        0.00006636        0.00000430
     197         -1.067094        1.000000        0.00171915        0.00056003        0.00000321
     198         -1.066200        1.000000        0.00215167        0.00126509        0.00004869
     199         -1.065105        1.000000        0.00133600        0.00002442        0.00001458
     200         -1.064600        1.000000        0.00157779        0.00003548        0.00001999
     201         -1.063825        1.000000        0.00011329        0.00003764        0.00000807
     202         -1.063672        1.000000        0.00047100        0.00004163        0.00000789
     203         -1.062915        1.000000        0.00043459        0.00011661        0.00001383
     204         -1.062259        1.000000        0.00027147        0.00059017        0.00006412
     205         -1.061986        1.000000        0.00036940        0.00001540        0.00000084
     206         -1.060822        1.000000        0.00384278        0.00007062        0.00000505
     207         -1.060230        1.000000        0.00052816        0.00001153        0.00000492
     208         -1.059971        1.000000        0.00340812        0.00003262        0.00000457
     209         -1.059399        1.000000        0.00422825        0.00005353        0.00005273
     210         -1.058798        1.000000        0.00094158        0.00025771        0.00001775
     211         -1.058498        1.000000        0.00154218        0.00012308        0.00001986
     212         -1.057049        1.000000        0.00302005        0.00002213        0.00000650
     213         -1.056896        1.000000        0.00271098        0.00003396        0.00002001
     214         -1.056403        1.000000        0.00013059        0.00004008        0.00002207
     215         -1.056079        1.000000        0.00000115        0.00013217        0.00003543
     216         -1.055624        1.000000        0.00413870        0.00011512        0.00005165
     217         -1.055288        1.000000        0.00010933        0.00004654        0.00007371
     218         -1.054828        1.000000        0.00299568        0.00007095        0.00002370
     219         -1.054413        1.000000        0.00004195        0.00006526        0.00005619
     220         -1.053990        1.000000        0.00349597        0.00004433        0.00003441
     221         -1.053598        1.000000        0.00006446        0.00001514        0.00001233
     222         -1.053387        1.000000        0.00269387        0.00014564        0.00003959
     223         -1.052953        1.000000        0.03494605        0.00024842        0.00000939
     224         -1.052779        1.000000        0.01160973        0.00041541        0.00004936
     225         -1.052376        1.000000        0.00192648        0.00003737        0.00001528
     226         -1.052297        1.000000        0.00640289        0.00004654        0.00001694
     227         -1.051819        1.000000        0.01213024        0.00007025        0.00008171
     228         -1.051536        1.000000        0.00239155        0.00002770        0.00000675
     229         -1.051232        1.000000        0.02450790        0.00012898        0.00007401
     230         -1.050581        1.000000        0.00580445        0.00004668        0.00000523
     231         -1.050140        1.000000        0.00035581        0.00001370        0.00000415
     232         -1.049834        1.000000        0.00562006        0.00003907        0.00000555
     233         -1.049588        1.000000        0.00102800        0.00000831        0.00000375
     234         -1.049506        1.000000        0.00060610        0.00001112        0.00000955
     235         -1.048565        1.000000        0.00051926        0.00000995        0.00000386
     236         -1.048103        1.000000        0.00000025        0.00000534        0.00000473
     237         -1.048023        1.000000        0.00550807        0.00005336        0.00000222
     238         -1.047651        1.000000        0.00368990        0.00003194        0.00000894
     239         -1.047305        1.000000        0.00114653        0.00000713        0.00000549
     240         -1.046707        1.000000        0.00112372        0.00001365        0.00000505
     241         -1.046592        1.000000        0.00335123        0.00003993        0.00000012
     242         -1.046281        1.000000        0.00175307        0.00006107        0.00000763
     243         -1.045974        1.000000        0.00003598        0.00000103        0.00000335
     244         -1.045866        1.000000        0.00904224        0.00021021        0.00004533
     245         -1.045771        1.000000        0.00064624        0.00002381        0.00000674
     246         -1.045301        1.000000        0.00006366        0.00000704        0.00000369
     247         -1.045020        1.000000        0.00260470        0.00004587        0.00000577
     248         -1.043956        1.000000        0.00002312        0.00000712        0.00000550
     249         -1.043818        1.000000        0.00075030        0.00001512        0.00000387
     250         -1.043244        1.000000        0.00135128        0.00005648        0.00000786
     251         -1.043119        1.000000        0.00000286        0.00000377        0.00000309
     252         -1.042993        1.000000        0.00025073        0.00004092        0.00003146
     253         -1.042515        1.000000        0.00000525        0.00000425        0.00000241
     254         -1.041302        1.000000        0.00025214        0.00000434        0.00000595
     255         -1.041116        1.000000        0.00031875        0.00000778        0.00000439
     256         -1.040594        1.000000        0.00001084        0.00006138        0.00007762
     257         -1.040094        1.000000        0.00026394        0.00002707        0.00001250
     258         -1.039599        1.000000        0.00144296        0.00013952        0.00015864
     259         -1.039408        1.000000        0.00005593        0.00000646        0.00000842
     260         -1.038970        1.000000        0.00034046        0.00002411        0.00002368
     261         -1.038561        1.000000        0.00023533        0.00000303        0.00000814
     262         -1.038022        1.000000        0.00004457        0.00001150        0.00000830
     263         -1.037841        1.000000        0.00001521        0.00000931        0.00001190
     264         -1.036991        1.000000        0.00060463        0.00008063        0.00007816
     265         -1.036854        1.000000        0.00000556        0.00005329        0.00002740
     266         -1.035910        1.000000        0.00006902        0.00000564        0.00000306
     267         -1.035115        1.000000        0.00193155        0.00039612        0.00024310
     268         -1.034275        1.000000        0.00000214        0.00002543        0.00003072
     269         -1.033697        1.000000        0.00036903        0.00016407        0.00016143
     270         -1.033444        1.000000        0.00001254        0.00004840        0.00005343
     271         -1.033385        1.000000        0.00015278        0.00008993        0.00009711
     272         -1.033262        1.000000        0.00001040        0.00002353        0.00002567
     273         -1.032346        1.000000        0.00000147        0.00000033        0.00000033
     274         -1.031626        1.000000        0.00006426        0.00001284        0.00001208
     275         -1.030746        1.000000        0.00000840        0.00000281        0.00000347
     276         -1.029780        1.000000        0.00080327        0.00013680        0.00011703
     277         -1.028980        1.000000        0.00002581        0.00000833        0.00000880
     278         -1.027492        1.000000        0.00000056        0.00000074        0.00000010
     279         -1.025795        1.000000        0.00000007        0.00000034        0.00000004
     280         -1.023990        1.000000        0.00000411        0.00000033        0.00000043
     281         -1.022755        1.000000        0.00000007        0.00000000        0.00000000
     282         -1.019871        1.000000        0.00000717        0.00000314        0.00000131
     283         -1.017737        1.000000        0.00000002        0.00000071        0.00000008
     284         -1.012409        1.000000        0.00159347        0.00023862        0.00014739
     285         -1.010522        1.000000        0.00000028        0.00000002        0.00000001
     286         -0.880961        1.000000        0.00000000        0.00000000        0.00000000
     287         -0.861761        1.000000        0.00000000        0.00000000        0.00000000
     288         -0.860652        1.000000        0.00000000        0.00000000        0.00000000
     289         -0.854811        1.000000        0.00000000        0.00000000        0.00000000
     290         -0.853189        1.000000        0.00000000        0.00000000        0.00000000
     291         -0.838407        1.000000        0.00000000        0.00000000        0.00000000
     292         -0.837131        1.000000        0.00000000        0.00000000        0.00000000
     293         -0.835422        1.000000        0.00000000        0.00000000        0.00000000
     294         -0.832873        1.000000        0.00000000        0.00000000        0.00000000
     295         -0.813092        1.000000        0.00000000        0.00000000        0.00000000
     296         -0.811309        1.000000        0.00000000        0.00000000        0.00000000
     297         -0.805633        1.000000        0.00000000        0.00000000        0.00000000
     298         -0.800994        1.000000        0.00000000        0.00000000        0.00000000
     299         -0.798544        1.000000        0.00000000        0.00000000        0.00000000
     300         -0.797176        1.000000        0.00000000        0.00000000        0.00000000
     301         -0.796065        1.000000        0.00000000        0.00000000        0.00000000
     302         -0.795247        1.000000        0.00000000        0.00000000        0.00000000
     303         -0.794465        1.000000        0.00000000        0.00000000        0.00000000
     304         -0.792558        1.000000        0.00000000        0.00000000        0.00000000
     305         -0.791532        1.000000        0.00000000        0.00000000        0.00000000
     306         -0.790931        1.000000        0.00000000        0.00000000        0.00000000
     307         -0.790366        1.000000        0.00000000        0.00000000        0.00000000