# Projected DOS for list 9 of 1 atoms, at iteration step i = 0, E(Fermi) =    -0.237583 a.u.
#     MO Eigenvalue [a.u.]      Occupation                 s                 p                 d
       1         -3.115895        1.000000        0.00000000        0.00000000        0.00000000
       2         -3.112717        1.000000        0.00000000        0.00000000        0.00000000
       3         -3.112103        1.000000        0.00000004        0.00000003        0.00000000
       4         -3.111180        1.000000        0.00000000        0.00000000        0.00000000
       5         -3.110810        1.000000        0.00000000        0.00000000        0.00000000
       6         -3.110575        1.000000        0.00000000        0.00000000        0.00000000
       7         -3.110067        1.000000        0.00000000        0.00000000        0.00000000
       8         -3.109817        1.000000        0.00000000        0.00000000        0.00000000
       9         -3.109660        1.000000        0.00000000        0.00000000        0.00000000
      10         -3.108831        1.000000        0.00000006        0.00000003        0.00000000
      11         -3.108678        1.000000        0.00000000        0.00000000        0.00000000
      12         -3.108578        1.000000        0.00000000        0.00000000        0.00000000
      13         -3.108350        1.000000        0.00000000        0.00000000        0.00000000
      14         -3.108163        1.000000        0.00000000        0.00000000        0.00000000
      15         -3.107948        1.000000        0.00000000        0.00000000        0.00000000
      16         -3.107865        1.000000        0.00000000        0.00000000        0.00000000
      17         -3.107703        1.000000        0.00000000        0.00000000        0.00000000
      18         -3.107683        1.000000        0.00000000        0.00000000        0.00000000
      19         -3.107641        1.000000        0.00000000        0.00000000        0.00000000
      20         -3.107604        1.000000        0.00000000        0.00000000        0.00000000
      21         -3.107402        1.000000        0.00000000        0.00000000        0.00000000
      22         -3.107115        1.000000        0.00000000        0.00000000        0.00000000
      23         -3.107013        1.000000        0.00000000        0.00000000        0.00000000
      24         -3.106750        1.000000        0.00000000        0.00000000        0.00000000
      25         -3.106619        1.000000        0.00000000        0.00000000        0.00000000
      26         -3.106567        1.000000        0.00000000        0.00000000        0.00000000
      27         -3.106546        1.000000        0.00000000        0.00000000        0.00000000
      28         -3.106258        1.000000        0.00000000        0.00000000        0.00000000
      29         -3.106103        1.000000        0.00000000        0.00000000        0.00000000
      30         -3.104674        1.000000        0.00000000        0.00000000        0.00000000
      31         -1.775522        1.000000        0.00000000        0.00000000        0.00000000
      32         -1.773964        1.000000        0.00000000        0.00000000        0.00000000
      33         -1.773454        1.000000        0.00000000        0.00000000        0.00000000
      34         -1.773008        1.000000        0.00000000        0.00000000        0.00000000
      35         -1.772581        1.000000        0.00000000        0.00000000        0.00000000
      36         -1.772213        1.000000        0.00000000        0.00000000        0.00000000
      37         -1.771852        1.000000        0.00000000        0.00000000        0.00000000
      38         -1.771444        1.000000        0.00000000        0.00000000        0.00000000
      39         -1.771233        1.000000        0.00000000        0.00000000        0.00000000
      40         -1.770977        1.000000        0.00000000        0.00000000        0.00000000
      41         -1.770760        1.000000        0.00000000        0.00000000        0.00000000
      42         -1.770111        1.000000        0.00000000        0.00000000        0.00000000
      43         -1.770034        1.000000        0.00000000        0.00000000        0.00000000
      44         -1.769495        1.000000        0.00000000        0.00000000        0.00000000
      45         -1.769421        1.000000        0.00000000        0.00000000        0.00000000
      46         -1.769063        1.000000        0.00000000        0.00000000        0.00000000
      47         -1.768532        1.000000        0.00000000        0.00000000        0.00000000
      48         -1.768412        1.000000        0.00000000        0.00000000        0.00000000
      49         -1.767811        1.000000        0.00000000        0.00000000        0.00000000
      50         -1.767614        1.000000        0.00000000        0.00000000        0.00000000
      51         -1.767477        1.000000        0.00000000        0.00000000        0.00000000
      52         -1.765531        1.000000        0.00000000        0.00000000        0.00000000
      53         -1.765088        1.000000        0.00000000        0.00000000        0.00000000
      54         -1.764557        1.000000        0.00000000        0.00000000        0.00000000
      55         -1.763772        1.000000        0.00000000        0.00000000        0.00000000
      56         -1.763328        1.000000        0.00000000        0.00000000        0.00000000
      57         -1.762925        1.000000        0.00000000        0.00000000        0.00000000
      58         -1.762506        1.000000        0.00000000        0.00000000        0.00000000
      59         -1.762119        1.000000        0.00000000        0.00000000        0.00000000
      60         -1.762053        1.000000        0.00000000        0.00000000        0.00000000
      61         -1.761895        1.000000        0.00000000        0.00000000        0.00000000
      62         -1.761602        1.000000        0.00000000        0.00000000        0.00000000
      63         -1.761509        1.000000        0.00000000        0.00000000        0.00000000
      64         -1.761377        1.000000        0.00000000        0.00000000        0.00000000
      65         -1.761171        1.000000        0.00000000        0.00000000        0.00000000
      66         -1.760998        1.000000        0.00000000        0.00000000        0.00000000
      67         -1.760877        1.000000        0.00000000        0.00000000        0.00000000
      68         -1.760806        1.000000        0.00000000        0.00000000        0.00000000
      69         -1.760684        1.000000        0.00000000        0.00000000        0.00000000
      70         -1.760645        1.000000        0.00000000        0.00000000        0.00000000
      71         -1.760442        1.000000        0.00000000        0.00000000        0.00000000
      72         -1.760098        1.000000        0.00000000        0.00000000        0.00000000
      73         -1.759962        1.000000        0.00000000        0.00000000        0.00000000
      74         -1.759824        1.000000        0.00000000        0.00000000        0.00000000
      75         -1.759787        1.000000        0.00000000        0.00000000        0.00000000
      76         -1.759638        1.000000        0.00000000        0.00000000        0.00000000
      77         -1.759601        1.000000        0.00000000        0.00000000        0.00000000
      78         -1.759512        1.000000        0.00000000        0.00000000        0.00000000
      79         -1.759406        1.000000        0.00000000        0.00000000        0.00000000
      80         -1.759287        1.000000        0.00000000        0.00000000        0.00000000
      81         -1.759176        1.000000        0.00000000        0.00000000        0.00000000
      82         -1.758872        1.000000        0.00000000        0.00000000        0.00000000
      83         -1.758781        1.000000        0.00000000        0.00000000        0.00000000
      84         -1.758726        1.000000        0.00000000        0.00000000        0.00000000
      85         -1.758559        1.000000        0.00000000        0.00000000        0.00000000
      86         -1.758378        1.000000        0.00000000        0.00000000        0.00000000
      87         -1.758294        1.000000        0.00000000        0.00000000        0.00000000
      88         -1.758087        1.000000        0.00000000        0.00000000        0.00000000
      89         -1.757987        1.000000        0.00000000        0.00000000        0.00000000
      90         -1.757734        1.000000        0.00000000        0.00000000        0.00000000
      91         -1.757649        1.000000        0.00000000        0.00000000        0.00000000
      92         -1.757529        1.000000        0.00000000        0.00000000        0.00000000
      93         -1.757404        1.000000        0.00000000        0.00000000        0.00000000
      94         -1.757324        1.000000        0.00000000        0.00000000        0.00000000
      95         -1.757187        1.000000        0.00000000        0.00000000        0.00000000
      96         -1.757137        1.000000        0.00000000        0.00000000        0.00000000
      97         -1.756770        1.000000        0.00000000        0.00000000        0.00000000
      98         -1.756598        1.000000        0.00000000        0.00000000        0.00000000
      99         -1.756513        1.000000        0.00000000        0.00000000        0.00000000
     100         -1.756186        1.000000        0.00000000        0.00000000        0.00000000
     101         -1.755847        1.000000        0.00000000        0.00000000        0.00000000
     102         -1.755716        1.000000        0.00000000        0.00000000        0.00000000
     103         -1.755306        1.000000        0.00000000        0.00000000        0.00000000
     104         -1.755052        1.000000        0.00000000        0.00000000        0.00000000
     105         -1.754765        1.000000        0.00000000        0.00000000        0.00000000
     106         -1.754094        1.000000        0.00000000        0.00000000        0.00000000
     107         -1.753681        1.000000        0.00000000        0.00000000        0.00000000
     108         -1.753548        1.000000        0.00000000        0.00000000        0.00000000
     109         -1.753256        1.000000        0.00000000        0.00000000        0.00000000
     110         -1.752675        1.000000        0.00000000        0.00000000        0.00000000
     111         -1.752502        1.000000        0.00000000        0.00000000        0.00000000
     112         -1.752253        1.000000        0.00000000        0.00000000        0.00000000
     113         -1.751643        1.000000        0.00000000        0.00000000        0.00000000
     114         -1.751317        1.000000        0.00000000        0.00000000        0.00000000
     115         -1.749193        1.000000        0.00000000        0.00000000        0.00000000
     116         -1.748137        1.000000        0.00000000        0.00000000        0.00000000
     117         -1.747283        1.000000        0.00000000        0.00000000        0.00000000
     118         -1.745962        1.000000        0.00000000        0.00000000        0.00000000
     119         -1.745880        1.000000        0.00000000        0.00000000        0.00000000
     120         -1.744143        1.000000        0.00000000        0.00000000        0.00000000
     121         -1.145318        1.000000        0.00034019        0.00002494        0.00000908
     122         -1.141162        1.000000        0.00001173        0.00002492        0.00000241
     123         -1.135518        1.000000        0.02515033        0.00127615        0.00059291
     124         -1.134356        1.000000        0.00096657        0.00007903        0.00001919
     125         -1.132797        1.000000        0.00044472        0.00003203        0.00001436
     126         -1.131675        1.000000        0.00112220        0.00018516        0.00004332
     127         -1.130657        1.000000        0.00005106        0.00008879        0.00002234
     128         -1.129329        1.000000        0.00748089        0.00060930        0.00010275
     129         -1.127805        1.000000        0.00084336        0.00382414        0.00018769
     130         -1.126970        1.000000        0.00142132        0.00039957        0.00004354
     131         -1.125100        1.000000        0.00018650        0.00014926        0.00004328
     132         -1.124640        1.000000        0.00020156        0.00025030        0.00002985
     133         -1.122028        1.000000        0.00592929        0.00043134        0.00007690
     134         -1.120887        1.000000        0.01235929        0.00040302        0.00025025
     135         -1.119308        1.000000        0.00126225        0.00019440        0.00003767
     136         -1.118408        1.000000        0.00492181        0.00016924        0.00011143
     137         -1.117769        1.000000        0.00065456        0.00014772        0.00001931
     138         -1.116570        1.000000        0.02257301        0.00093982        0.00032193
     139         -1.115096        1.000000        0.00088578        0.00005786        0.00001757
     140         -1.114402        1.000000        0.00015340        0.00007691        0.00000842
     141         -1.114039        1.000000        0.00023253        0.00003509        0.00002988
     142         -1.112381        1.000000        0.00011789        0.00014912        0.00002808
     143         -1.111588        1.000000        0.00040597        0.00012179        0.00003022
     144         -1.111356        1.000000        0.00093681        0.00099314        0.00003279
     145         -1.110913        1.000000        0.00027833        0.00074914        0.00005294
     146         -1.109631        1.000000        0.00393238        0.00031139        0.00008377
     147         -1.107338        1.000000        0.00011184        0.00046301        0.00002436
     148         -1.107163        1.000000        0.00339843        0.00006426        0.00005684
     149         -1.106911        1.000000        0.00008961        0.00056800        0.00002991
     150         -1.105904        1.000000        0.00230576        0.00028659        0.00003882
     151         -1.104513        1.000000        0.00000473        0.00006519        0.00000557
     152         -1.103753        1.000000        0.00010170        0.00000599        0.00000312
     153         -1.103233        1.000000        0.00566369        0.00070778        0.00004816
     154         -1.101116        1.000000        0.00732840        0.00118899        0.00013583
     155         -1.099878        1.000000        0.00862883        0.00037940        0.00011250
     156         -1.099527        1.000000        0.00072525        0.00025434        0.00001668
     157         -1.099360        1.000000        0.00213051        0.00035426        0.00005710
     158         -1.097449        1.000000        0.00017974        0.00117656        0.00003396
     159         -1.097246        1.000000        0.00127103        0.00110149        0.00006912
     160         -1.096336        1.000000        0.00006493        0.00006780        0.00000760
     161         -1.095776        1.000000        0.00037806        0.00004475        0.00000432
     162         -1.094258        1.000000        0.00053959        0.00030717        0.00003338
     163         -1.093701        1.000000        0.00220346        0.00025829        0.00001897
     164         -1.093107        1.000000        0.00623310        0.00029225        0.00006657
     165         -1.091600        1.000000        0.00090623        0.00030088        0.00004152
     166         -1.090890        1.000000        0.00000599        0.00013814        0.00008457
     167         -1.090283        1.000000        0.00000031        0.00025010        0.00002026
     168         -1.089378        1.000000        0.00018169        0.00006072        0.00003091
     169         -1.088506        1.000000        0.00012982        0.00023773        0.00003714
     170         -1.086931        1.000000        0.00002185        0.00070345        0.00008606
     171         -1.086367        1.000000        0.00068025        0.00005397        0.00001830
     172         -1.085327        1.000000        0.00173040        0.00025152        0.00002370
     173         -1.084766        1.000000        0.00085609        0.00007327        0.00001111
     174         -1.083961        1.000000        0.00012491        0.00000738        0.00000587
     175         -1.082920        1.000000        0.00127316        0.00006996        0.00004517
     176         -1.081700        1.000000        0.00001533        0.00002991        0.00001761
     177         -1.081031        1.000000        0.00202674        0.00003949        0.00003665
     178         -1.080558        1.000000        0.00206595        0.00012876        0.00007302
     179         -1.080415        1.000000        0.00741678        0.00017658        0.00004409
     180         -1.080047        1.000000        0.00345116        0.00014670        0.00001713
     181         -1.077309        1.000000        0.00007821        0.00007209        0.00000854
     182         -1.076601        1.000000        0.00024577        0.00008496        0.00005598
     183         -1.076342        1.000000        0.00054051        0.00010299        0.00003234
     184         -1.076154        1.000000        0.00002407        0.00001298        0.00003116
     185         -1.075469        1.000000        0.00012892        0.00012552        0.00002528
     186         -1.074904        1.000000        0.00009848        0.00003984        0.00002203
     187         -1.074160        1.000000        0.00005460        0.00005226        0.00000616
     188         -1.073364        1.000000        0.00382057        0.00013272        0.00016918
     189         -1.071841        1.000000        0.00000118        0.00008433        0.00006822
     190         -1.071436        1.000000        0.00026335        0.00002102        0.00001115
     191         -1.070358        1.000000        0.00172688        0.00036606        0.00004363
     192         -1.070160        1.000000        0.00237629        0.00002682        0.00004006
     193         -1.069551        1.000000        0.00397448        0.00033630        0.00019537
     194         -1.069042        1.000000        0.00709068        0.00011341        0.00009465
     195         -1.068018        1.000000        0.00598523        0.00016351        0.00012861
     196         -1.067683        1.000000        0.00091871        0.00007917        0.00014245
     197         -1.067094        1.000000        0.00024449        0.00015360        0.00004779
     198         -1.066200        1.000000        0.00021287        0.00001111        0.00002510
     199         -1.065105        1.000000        0.00002750        0.00004033        0.00003746
     200         -1.064600        1.000000        0.00020371        0.00008660        0.00013055
     201         -1.063825        1.000000        0.00000113        0.00015128        0.00002130
     202         -1.063672        1.000000        0.00007606        0.00004657        0.00001563
     203         -1.062915        1.000000        0.00318472        0.00004424        0.00001683
     204         -1.062259        1.000000        0.00000140        0.00003013        0.00000687
     205         -1.061986        1.000000        0.00935407        0.00010694        0.00005372
     206         -1.060822        1.000000        0.00011040        0.00010187        0.00006977
     207         -1.060230        1.000000        0.00337117        0.00007033        0.00005598
     208         -1.059971        1.000000        0.00087970        0.00006954        0.00003151
     209         -1.059399        1.000000        0.00232111        0.00003615        0.00001340
     210         -1.058798        1.000000        0.00420150        0.00005355        0.00001381
     211         -1.058498        1.000000        0.00766515        0.00013450        0.00005376
     212         -1.057049        1.000000        0.00207603        0.00013389        0.00002781
     213         -1.056896        1.000000        0.00019225        0.00004297        0.00000861
     214         -1.056403        1.000000        0.00093785        0.00020387        0.00005586
     215         -1.056079        1.000000        0.00030135        0.00001862        0.00000878
     216         -1.055624        1.000000        0.00372885        0.00004798        0.00000855
     217         -1.055288        1.000000        0.01517889        0.00013822        0.00000857
     218         -1.054828        1.000000        0.06010683        0.00055591        0.00002937
     219         -1.054413        1.000000        0.08010772        0.00077113        0.00003114
     220         -1.053990        1.000000        0.00356274        0.00004605        0.00000365
     221         -1.053598        1.000000        0.00397994        0.00004395        0.00000289
     222         -1.053387        1.000000        0.00066267        0.00004895        0.00001226
     223         -1.052953        1.000000        0.00228479        0.00004007        0.00002816
     224         -1.052779        1.000000        0.01626503        0.00017110        0.00003238
     225         -1.052376        1.000000        0.00006540        0.00001726        0.00004601
     226         -1.052297        1.000000        0.00580784        0.00006662        0.00001151
     227         -1.051819        1.000000        0.01685659        0.00015835        0.00003485
     228         -1.051536        1.000000        0.01303183        0.00013350        0.00002000
     229         -1.051232        1.000000        0.00017878        0.00000854        0.00000305
     230         -1.050581        1.000000        0.00600199        0.00005975        0.00001375
     231         -1.050140        1.000000        0.00840312        0.00009044        0.00001969
     232         -1.049834        1.000000        0.00042118        0.00003092        0.00001411
     233         -1.049588        1.000000        0.00064456        0.00001112        0.00000028
     234         -1.049506        1.000000        0.00022605        0.00000500        0.00000027
     235         -1.048565        1.000000        0.01115641        0.00012930        0.00000646
     236         -1.048103        1.000000        0.00078426        0.00001112        0.00000210
     237         -1.048023        1.000000        0.00788792        0.00007918        0.00000679
     238         -1.047651        1.000000        0.00012765        0.00000448        0.00000336
     239         -1.047305        1.000000        0.00033529        0.00000778        0.00000223
     240         -1.046707        1.000000        0.00433558        0.00005246        0.00000351
     241         -1.046592        1.000000        0.00375731        0.00006377        0.00001447
     242         -1.046281        1.000000        0.00225535        0.00004500        0.00000377
     243         -1.045974        1.000000        0.04931701        0.00068719        0.00006094
     244         -1.045866        1.000000        0.00026281        0.00000737        0.00000541
     245         -1.045771        1.000000        0.00011974        0.00000451        0.00000691
     246         -1.045301        1.000000        0.00003788        0.00000859        0.00000609
     247         -1.045020        1.000000        0.00225531        0.00003542        0.00000182
     248         -1.043956        1.000000        0.00294741        0.00015208        0.00009723
     249         -1.043818        1.000000        0.00031877        0.00006161        0.00008449
     250         -1.043244        1.000000        0.00298385        0.00005519        0.00000398
     251         -1.043119        1.000000        0.00001920        0.00001123        0.00000423
     252         -1.042993        1.000000        0.00044166        0.00005830        0.00002903
     253         -1.042515        1.000000        0.01079031        0.00046947        0.00027452
     254         -1.041302        1.000000        0.00029428        0.00000300        0.00000252
     255         -1.041116        1.000000        0.00020597        0.00000524        0.00000281
     256         -1.040594        1.000000        0.00069006        0.00000716        0.00001561
     257         -1.040094        1.000000        0.00123840        0.00001593        0.00000456
     258         -1.039599        1.000000        0.00046304        0.00000654        0.00000336
     259         -1.039408        1.000000        0.00010987        0.00000185        0.00000077
     260         -1.038970        1.000000        0.00000075        0.00000137        0.00000074
     261         -1.038561        1.000000        0.00001295        0.00000122        0.00000017
     262         -1.038022        1.000000        0.00000088        0.00000022        0.00000012
     263         -1.037841        1.000000        0.00349550        0.00006218        0.00001811
     264         -1.036991        1.000000        0.00000254        0.00000011        0.00000180
     265         -1.036854        1.000000        0.00001740        0.00000199        0.00000124
     266         -1.035910        1.000000        0.00000031        0.00000007        0.00000002
     267         -1.035115        1.000000        0.00003331        0.00000441        0.00000435
     268         -1.034275        1.000000        0.00000168        0.00000030        0.00000078
     269         -1.033697        1.000000        0.00000012        0.00000140        0.00000070
     270         -1.033444        1.000000        0.00001965        0.00000054        0.00000060
     271         -1.033385        1.000000        0.00000637        0.00000084        0.00000062
     272         -1.033262        1.000000        0.00002603        0.00000089        0.00000021
     273         -1.032346        1.000000        0.00000413        0.00000020        0.00000007
     274         -1.031626        1.000000        0.00000035        0.00000002        0.00000001
     275         -1.030746        1.000000        0.00000008        0.00000000        0.00000000
     276         -1.029780        1.000000        0.00000246        0.00000009        0.00000004
     277         -1.028980        1.000000        0.00000259        0.00000037        0.00000002
     278         -1.027492        1.000000        0.00053837        0.00009111        0.00002677
     279         -1.025795        1.000000        0.00000531        0.00000626        0.00000110
     280         -1.023990        1.000000        0.00002583        0.00000894        0.00000213
     281         -1.022755        1.000000        0.00000055        0.00000013        0.00000002
     282         -1.019871        1.000000        0.00000045        0.00000006        0.00000001
     283         -1.017737        1.000000        0.00000490        0.00000261        0.00000033
     284         -1.012409        1.000000        0.00000165        0.00000016        0.00000001
     285         -1.010522        1.000000        0.00000000        0.00000000        0.00000000
     286         -0.880961        1.000000        0.00000012        0.00000010        0.00000000
     287         -0.861761        1.000000        0.00000002        0.00000003        0.00000000
     288         -0.860652        1.000000        0.00000003        0.00000004        0.00000000
     289         -0.854811        1.000000        0.00000004        0.00000005        0.00000000
     290         -0.853189        1.000000        0.00000002        0.00000002        0.00000000
     291         -0.838407        1.000000        0.00000002        0.00000004        0.00000000
     292         -0.837131        1.000000        0.00000001        0.00000001        0.00000000
     293         -0.835422        1.000000        0.00000003        0.00000003        0.00000000
     294         -0.832873        1.000000        0.00000000        0.00000000        0.00000000
     295         -0.813092        1.000000        0.00000000        0.00000000        0.00000000
     296         -0.811309        1.000000        0.00000000        0.00000002        0.00000000
     297         -0.805633        1.000000        0.00000015        0.00000011        0.00000000
     298         -0.800994        1.000000        0.00000000        0.00000002        0.00000000
     299         -0.798544        1.000000        0.00000004        0.00000004        0.00000000
     300         -0.797176        1.000000        0.00000000        0.00000001        0.00000000
     301         -0.796065        1.000000        0.00000000        0.00000000        0.00000000
     302         -0.795247        1.000000        0.00000003        0.00000004        0.00000000
     303         -0.794465        1.000000        0.00000000        0.00000001        0.00000000
     304         -0.792558        1.000000        0.00000001        0.00000001        0.00000000
     305         -0.791532        1.000000        0.00000002        0.00000002        0.00000000
     306         -0.790931        1.000000        0.00000001        0.00000002        0.00000000
     307         -0.790366        1.000000        0.00000003        0.00000003        0.00000000