# Projected DOS for atomic kind W at iteration step i = 0, E(Fermi) =    -0.237583 a.u.
#     MO Eigenvalue [a.u.]      Occupation                 s                 p                 d                 f
       1         -3.115895        1.000000        0.87592258        0.00795771        0.06069591        0.00191705
       2         -3.112717        1.000000        0.86994318        0.00715080        0.05339965        0.00193605
       3         -3.112103        1.000000        0.84823583        0.00926793        0.05971237        0.00149490
       4         -3.111180        1.000000        0.87848105        0.00684320        0.05662645        0.00209920
       5         -3.110810        1.000000        0.86717588        0.00777538        0.05944795        0.00188952
       6         -3.110575        1.000000        0.86854828        0.00828534        0.05881056        0.00187607
       7         -3.110067        1.000000        0.86546125        0.00712872        0.05813445        0.00196221
       8         -3.109817        1.000000        0.86069958        0.00772182        0.05562485        0.00185580
       9         -3.109660        1.000000        0.85784625        0.00819923        0.05474910        0.00171825
      10         -3.108831        1.000000        0.85017762        0.00550240        0.05873913        0.00142120
      11         -3.108678        1.000000        0.85248577        0.00902586        0.05877648        0.00171796
      12         -3.108578        1.000000        0.85161760        0.01112745        0.06122363        0.00183086
      13         -3.108350        1.000000        0.85460904        0.01018392        0.05439881        0.00167617
      14         -3.108163        1.000000        0.85904085        0.01047654        0.04959808        0.00198685
      15         -3.107948        1.000000        0.86406293        0.00956692        0.05521000        0.00208508
      16         -3.107865        1.000000        0.87888018        0.00755434        0.05311631        0.00202047
      17         -3.107703        1.000000        0.87491185        0.00687479        0.05460867        0.00222285
      18         -3.107683        1.000000        0.87841637        0.00602965        0.06238083        0.00188894
      19         -3.107641        1.000000        0.88063534        0.00505484        0.05713461        0.00266331
      20         -3.107604        1.000000        0.87394830        0.00601607        0.06569712        0.00176455
      21         -3.107402        1.000000        0.87387748        0.00617238        0.06326275        0.00200898
      22         -3.107115        1.000000        0.88051983        0.00411962        0.06083449        0.00224396
      23         -3.107013        1.000000        0.86444470        0.00727981        0.06404531        0.00200824
      24         -3.106750        1.000000        0.87632624        0.00518340        0.06156394        0.00189101
      25         -3.106619        1.000000        0.88756671        0.00362643        0.05090693        0.00276913
      26         -3.106567        1.000000        0.88296680        0.00467430        0.06111806        0.00223682
      27         -3.106546        1.000000        0.88106428        0.00485161        0.06408503        0.00193262
      28         -3.106258        1.000000        0.88308072        0.00378749        0.05778574        0.00238772
      29         -3.106103        1.000000        0.88202563        0.00511164        0.05628045        0.00221059
      30         -3.104674        1.000000        0.87885682        0.00536441        0.05837564        0.00214881
      31         -1.775522        1.000000        0.00117176        0.95844840        0.00326072        0.00107980
      32         -1.773964        1.000000        0.00241478        0.95322381        0.00980699        0.00112988
      33         -1.773454        1.000000        0.00235529        0.95394408        0.01147871        0.00095044
      34         -1.773008        1.000000        0.00135062        0.95021592        0.01526753        0.00084366
      35         -1.772581        1.000000        0.00113130        0.95181787        0.01204196        0.00110017
      36         -1.772213        1.000000        0.00083143        0.94976212        0.01606198        0.00072889
      37         -1.771852        1.000000        0.00271549        0.95155641        0.01206538        0.00096150
      38         -1.771444        1.000000        0.00521357        0.95421392        0.00577687        0.00132336
      39         -1.771233        1.000000        0.00423379        0.95471327        0.00777494        0.00107883
      40         -1.770977        1.000000        0.00478632        0.95380399        0.00707751        0.00110558
      41         -1.770760        1.000000        0.00437212        0.95475635        0.00809541        0.00100480
      42         -1.770111        1.000000        0.00375208        0.94720070        0.01755671        0.00074840
      43         -1.770034        1.000000        0.00615747        0.95228410        0.01161674        0.00059025
      44         -1.769495        1.000000        0.00317646        0.94719376        0.01870531        0.00067335
      45         -1.769421        1.000000        0.00604523        0.95235600        0.01185401        0.00074805
      46         -1.769063        1.000000        0.00691986        0.95300360        0.01223095        0.00039381
      47         -1.768532        1.000000        0.00708717        0.95132857        0.01282783        0.00026951
      48         -1.768412        1.000000        0.00765721        0.95210492        0.01137580        0.00043324
      49         -1.767811        1.000000        0.00741964        0.95223244        0.01105676        0.00053533
      50         -1.767614        1.000000        0.00660696        0.95348073        0.01175475        0.00051872
      51         -1.767477        1.000000        0.00660657        0.95242955        0.01268580        0.00036830
      52         -1.765531        1.000000        0.00097680        0.95250271        0.02403238        0.00029404
      53         -1.765088        1.000000        0.00019564        0.96018572        0.00774270        0.00055020
      54         -1.764557        1.000000        0.00049091        0.95274830        0.02309202        0.00029428
      55         -1.763772        1.000000        0.00027992        0.96361888        0.00602810        0.00039003
      56         -1.763328        1.000000        0.00023140        0.96191775        0.00576454        0.00041655
      57         -1.762925        1.000000        0.00040364        0.96258500        0.00440948        0.00046696
      58         -1.762506        1.000000        0.00033827        0.96225315        0.00651072        0.00036986
      59         -1.762119        1.000000        0.00052254        0.96167739        0.00623083        0.00034776
      60         -1.762053        1.000000        0.00450069        0.96199035        0.00762090        0.00028556
      61         -1.761895        1.000000        0.00128417        0.96250621        0.00586436        0.00035836
      62         -1.761602        1.000000        0.00387392        0.96239051        0.00733991        0.00032618
      63         -1.761509        1.000000        0.00267766        0.96318209        0.00587650        0.00035841
      64         -1.761377        1.000000        0.00274327        0.96248121        0.00643757        0.00032932
      65         -1.761171        1.000000        0.00148200        0.96204415        0.00678508        0.00036968
      66         -1.760998        1.000000        0.00289647        0.96288774        0.00687200        0.00034473
      67         -1.760877        1.000000        0.00259755        0.96290337        0.00901551        0.00041642
      68         -1.760806        1.000000        0.00307226        0.96277062        0.00684722        0.00032434
      69         -1.760684        1.000000        0.00546435        0.96301911        0.00779517        0.00031190
      70         -1.760645        1.000000        0.00190948        0.96200655        0.00582494        0.00030653
      71         -1.760442        1.000000        0.00104442        0.96376742        0.00644282        0.00039952
      72         -1.760098        1.000000        0.00181984        0.96338708        0.00595099        0.00030782
      73         -1.759962        1.000000        0.00172310        0.96596288        0.00830090        0.00043763
      74         -1.759824        1.000000        0.00133638        0.96331949        0.00553674        0.00042863
      75         -1.759787        1.000000        0.00173700        0.96427960        0.00604808        0.00035620
      76         -1.759638        1.000000        0.00065143        0.96252215        0.00448582        0.00037119
      77         -1.759601        1.000000        0.00125077        0.96553520        0.00589964        0.00039648
      78         -1.759512        1.000000        0.00030583        0.96402666        0.00387648        0.00042598
      79         -1.759406        1.000000        0.00148499        0.96474339        0.00767060        0.00042694
      80         -1.759287        1.000000        0.00159748        0.96430198        0.00533658        0.00036976
      81         -1.759176        1.000000        0.00080975        0.96339911        0.00559205        0.00047104
      82         -1.758872        1.000000        0.00353116        0.96672331        0.00914395        0.00039626
      83         -1.758781        1.000000        0.00086462        0.96433016        0.00616332        0.00046562
      84         -1.758726        1.000000        0.00122906        0.96345771        0.00955496        0.00041781
      85         -1.758559        1.000000        0.00040022        0.96362449        0.00486597        0.00046662
      86         -1.758378        1.000000        0.00025465        0.96474818        0.00318660        0.00046889
      87         -1.758294        1.000000        0.00008153        0.96556735        0.00341613        0.00039269
      88         -1.758087        1.000000        0.00015604        0.96658702        0.00302281        0.00045483
      89         -1.757987        1.000000        0.00044586        0.96636226        0.00279811        0.00040627
      90         -1.757734        1.000000        0.00394415        0.96686848        0.00759680        0.00036558
      91         -1.757649        1.000000        0.00325848        0.96742210        0.00766583        0.00036334
      92         -1.757529        1.000000        0.00044815        0.96608357        0.00648360        0.00042486
      93         -1.757404        1.000000        0.00018701        0.96692339        0.00313779        0.00039626
      94         -1.757324        1.000000        0.00071814        0.96878610        0.01067211        0.00040454
      95         -1.757187        1.000000        0.00055323        0.96410788        0.00767702        0.00040253
      96         -1.757137        1.000000        0.00108478        0.96844041        0.00818471        0.00041854
      97         -1.756770        1.000000        0.00023012        0.97005111        0.00366560        0.00044840
      98         -1.756598        1.000000        0.00095905        0.96803500        0.00590839        0.00041495
      99         -1.756513        1.000000        0.00136204        0.96744069        0.00993354        0.00036933
     100         -1.756186        1.000000        0.00070597        0.97188639        0.00702164        0.00038885
     101         -1.755847        1.000000        0.00089319        0.97156711        0.00880032        0.00044772
     102         -1.755716        1.000000        0.00143931        0.96884134        0.01114291        0.00036311
     103         -1.755306        1.000000        0.00332715        0.96788384        0.01221556        0.00033039
     104         -1.755052        1.000000        0.00121681        0.97008720        0.01063356        0.00039650
     105         -1.754765        1.000000        0.00416176        0.96808190        0.01115252        0.00032209
     106         -1.754094        1.000000        0.00128112        0.96456071        0.01672177        0.00046444
     107         -1.753681        1.000000        0.00109042        0.98061945        0.00448756        0.00027572
     108         -1.753548        1.000000        0.00652498        0.97149183        0.00670939        0.00026004
     109         -1.753256        1.000000        0.00107892        0.98029781        0.00436855        0.00026569
     110         -1.752675        1.000000        0.00252586        0.97549841        0.00676549        0.00028401
     111         -1.752502        1.000000        0.00075585        0.97846919        0.00605232        0.00021953
     112         -1.752253        1.000000        0.00049255        0.98519082        0.00256393        0.00026317
     113         -1.751643        1.000000        0.00125863        0.97786866        0.00637982        0.00028446
     114         -1.751317        1.000000        0.00297286        0.97358294        0.00809827        0.00029408
     115         -1.749193        1.000000        0.00026942        0.98085405        0.00141998        0.00164423
     116         -1.748137        1.000000        0.00015527        0.98265343        0.00131362        0.00145286
     117         -1.747283        1.000000        0.00019632        0.98241823        0.00148076        0.00146394
     118         -1.745962        1.000000        0.00026005        0.98699753        0.00099145        0.00131777
     119         -1.745880        1.000000        0.00020349        0.98754847        0.00095124        0.00131580
     120         -1.744143        1.000000        0.00027231        0.98764964        0.00077292        0.00141665
     121         -1.145318        1.000000        0.00000085        0.00000043        0.00000059        0.00000004
     122         -1.141162        1.000000        0.00000050        0.00000027        0.00000054        0.00000003
     123         -1.135518        1.000000        0.00000525        0.00000274        0.00000560        0.00000041
     124         -1.134356        1.000000        0.00000306        0.00000162        0.00000345        0.00000023
     125         -1.132797        1.000000        0.00000033        0.00000018        0.00000042        0.00000003
     126         -1.131675        1.000000        0.00000026        0.00000014        0.00000039        0.00000003
     127         -1.130657        1.000000        0.00000027        0.00000016        0.00000060        0.00000004
     128         -1.129329        1.000000        0.00000170        0.00000094        0.00000323        0.00000023
     129         -1.127805        1.000000        0.00000095        0.00000068        0.00000260        0.00000024
     130         -1.126970        1.000000        0.00000428        0.00000242        0.00000737        0.00000055
     131         -1.125100        1.000000        0.00000117        0.00000068        0.00000197        0.00000016
     132         -1.124640        1.000000        0.00000141        0.00000079        0.00000268        0.00000018
     133         -1.122028        1.000000        0.00000061        0.00000043        0.00000240        0.00000022
     134         -1.120887        1.000000        0.00000030        0.00000026        0.00000137        0.00000015
     135         -1.119308        1.000000        0.00000172        0.00000100        0.00000268        0.00000028
     136         -1.118408        1.000000        0.00000026        0.00000024        0.00000163        0.00000022
     137         -1.117769        1.000000        0.00000017        0.00000015        0.00000099        0.00000011
     138         -1.116570        1.000000        0.00000087        0.00000080        0.00000488        0.00000070
     139         -1.115096        1.000000        0.00000050        0.00000035        0.00000200        0.00000028
     140         -1.114402        1.000000        0.00000030        0.00000020        0.00000097        0.00000008
     141         -1.114039        1.000000        0.00000108        0.00000081        0.00000471        0.00000062
     142         -1.112381        1.000000        0.00000016        0.00000017        0.00000094        0.00000011
     143         -1.111588        1.000000        0.00000025        0.00000031        0.00000239        0.00000039
     144         -1.111356        1.000000        0.00000078        0.00000060        0.00000313        0.00000036
     145         -1.110913        1.000000        0.00000040        0.00000037        0.00000326        0.00000044
     146         -1.109631        1.000000        0.00000075        0.00000062        0.00000336        0.00000047
     147         -1.107338        1.000000        0.00000014        0.00000015        0.00000086        0.00000012
     148         -1.107163        1.000000        0.00000015        0.00000018        0.00000137        0.00000025
     149         -1.106911        1.000000        0.00000091        0.00000079        0.00000663        0.00000130
     150         -1.105904        1.000000        0.00000121        0.00000083        0.00000403        0.00000051
     151         -1.104513        1.000000        0.00000259        0.00000299        0.00003375        0.00000751
     152         -1.103753        1.000000        0.00000560        0.00000689        0.00007672        0.00001797
     153         -1.103233        1.000000        0.00000014        0.00000024        0.00000218        0.00000033
     154         -1.101116        1.000000        0.00000260        0.00000188        0.00001038        0.00000152
     155         -1.099878        1.000000        0.00000309        0.00000228        0.00001681        0.00000267
     156         -1.099527        1.000000        0.00000201        0.00000221        0.00002255        0.00000416
     157         -1.099360        1.000000        0.00000905        0.00000686        0.00004696        0.00000734
     158         -1.097449        1.000000        0.00000327        0.00000215        0.00001517        0.00000162
     159         -1.097246        1.000000        0.00000188        0.00000178        0.00001486        0.00000233
     160         -1.096336        1.000000        0.00001785        0.00001254        0.00008551        0.00000847
     161         -1.095776        1.000000        0.00002687        0.00001951        0.00014480        0.00001429
     162         -1.094258        1.000000        0.00000385        0.00000359        0.00002817        0.00000371
     163         -1.093701        1.000000        0.00000186        0.00000165        0.00001286        0.00000151
     164         -1.093107        1.000000        0.00000277        0.00000212        0.00001586        0.00000175
     165         -1.091600        1.000000        0.00000081        0.00000067        0.00000459        0.00000070
     166         -1.090890        1.000000        0.00000080        0.00000076        0.00000604        0.00000078
     167         -1.090283        1.000000        0.00000046        0.00000045        0.00000349        0.00000041
     168         -1.089378        1.000000        0.00000081        0.00000064        0.00000365        0.00000055
     169         -1.088506        1.000000        0.00000042        0.00000046        0.00000228        0.00000030
     170         -1.086931        1.000000        0.00000037        0.00000035        0.00000309        0.00000059
     171         -1.086367        1.000000        0.00000082        0.00000072        0.00000473        0.00000068
     172         -1.085327        1.000000        0.00000059        0.00000092        0.00000679        0.00000095
     173         -1.084766        1.000000        0.00000036        0.00000027        0.00000114        0.00000013
     174         -1.083961        1.000000        0.00000005        0.00000006        0.00000025        0.00000004
     175         -1.082920        1.000000        0.00000061        0.00000058        0.00000287        0.00000042
     176         -1.081700        1.000000        0.00000087        0.00000085        0.00000393        0.00000054
     177         -1.081031        1.000000        0.00000074        0.00000054        0.00000241        0.00000024
     178         -1.080558        1.000000        0.00000032        0.00000036        0.00000281        0.00000054
     179         -1.080415        1.000000        0.00000045        0.00000047        0.00000352        0.00000070
     180         -1.080047        1.000000        0.00000053        0.00000054        0.00000413        0.00000074
     181         -1.077309        1.000000        0.00000558        0.00000440        0.00002244        0.00000271
     182         -1.076601        1.000000        0.00000037        0.00000042        0.00000309        0.00000053
     183         -1.076342        1.000000        0.00000054        0.00000056        0.00000472        0.00000080
     184         -1.076154        1.000000        0.00000118        0.00000120        0.00000777        0.00000109
     185         -1.075469        1.000000        0.00000047        0.00000050        0.00000397        0.00000080
     186         -1.074904        1.000000        0.00000012        0.00000014        0.00000072        0.00000012
     187         -1.074160        1.000000        0.00000030        0.00000026        0.00000276        0.00000053
     188         -1.073364        1.000000        0.00000011        0.00000019        0.00000135        0.00000027
     189         -1.071841        1.000000        0.00000710        0.00000533        0.00003129        0.00000348
     190         -1.071436        1.000000        0.00000130        0.00000090        0.00000544        0.00000089
     191         -1.070358        1.000000        0.00000974        0.00000668        0.00003576        0.00000393
     192         -1.070160        1.000000        0.00001873        0.00001313        0.00007704        0.00000782
     193         -1.069551        1.000000        0.00000581        0.00000434        0.00002631        0.00000280
     194         -1.069042        1.000000        0.00000051        0.00000069        0.00000668        0.00000158
     195         -1.068018        1.000000        0.00000242        0.00000213        0.00001424        0.00000193
     196         -1.067683        1.000000        0.00000190        0.00000243        0.00003012        0.00000684
     197         -1.067094        1.000000        0.00000111        0.00000111        0.00000953        0.00000211
     198         -1.066200        1.000000        0.00000142        0.00000132        0.00000895        0.00000137
     199         -1.065105        1.000000        0.00000080        0.00000131        0.00001201        0.00000286
     200         -1.064600        1.000000        0.00000286        0.00000264        0.00001359        0.00000203
     201         -1.063825        1.000000        0.00000153        0.00000191        0.00002115        0.00000476
     202         -1.063672        1.000000        0.00000581        0.00000423        0.00002698        0.00000378
     203         -1.062915        1.000000        0.00000196        0.00000160        0.00001142        0.00000182
     204         -1.062259        1.000000        0.00000023        0.00000026        0.00000165        0.00000023
     205         -1.061986        1.000000        0.00000106        0.00000115        0.00000997        0.00000235
     206         -1.060822        1.000000        0.00000043        0.00000037        0.00000285        0.00000056
     207         -1.060230        1.000000        0.00000223        0.00000177        0.00000994        0.00000145
     208         -1.059971        1.000000        0.00000078        0.00000080        0.00000521        0.00000099
     209         -1.059399        1.000000        0.00000112        0.00000101        0.00000492        0.00000065
     210         -1.058798        1.000000        0.00000017        0.00000021        0.00000117        0.00000027
     211         -1.058498        1.000000        0.00000050        0.00000059        0.00000434        0.00000078
     212         -1.057049        1.000000        0.00000060        0.00000089        0.00000367        0.00000075
     213         -1.056896        1.000000        0.00000062        0.00000099        0.00000457        0.00000095
     214         -1.056403        1.000000        0.00000063        0.00000083        0.00000962        0.00000219
     215         -1.056079        1.000000        0.00000007        0.00000010        0.00000055        0.00000010
     216         -1.055624        1.000000        0.00000065        0.00000055        0.00000465        0.00000092
     217         -1.055288        1.000000        0.00000012        0.00000021        0.00000201        0.00000050
     218         -1.054828        1.000000        0.00000023        0.00000042        0.00000456        0.00000123
     219         -1.054413        1.000000        0.00000029        0.00000060        0.00000598        0.00000156
     220         -1.053990        1.000000        0.00000035        0.00000033        0.00000336        0.00000062
     221         -1.053598        1.000000        0.00000009        0.00000015        0.00000095        0.00000017
     222         -1.053387        1.000000        0.00000051        0.00000084        0.00000460        0.00000076
     223         -1.052953        1.000000        0.00000005        0.00000006        0.00000048        0.00000010
     224         -1.052779        1.000000        0.00000015        0.00000023        0.00000130        0.00000030
     225         -1.052376        1.000000        0.00000020        0.00000029        0.00000161        0.00000029
     226         -1.052297        1.000000        0.00000017        0.00000022        0.00000070        0.00000012
     227         -1.051819        1.000000        0.00000016        0.00000016        0.00000108        0.00000023
     228         -1.051536        1.000000        0.00000129        0.00000108        0.00000951        0.00000205
     229         -1.051232        1.000000        0.00000018        0.00000018        0.00000085        0.00000020
     230         -1.050581        1.000000        0.00000006        0.00000008        0.00000043        0.00000010
     231         -1.050140        1.000000        0.00000039        0.00000050        0.00000200        0.00000029
     232         -1.049834        1.000000        0.00000004        0.00000005        0.00000046        0.00000009
     233         -1.049588        1.000000        0.00000001        0.00000002        0.00000010        0.00000002
     234         -1.049506        1.000000        0.00000002        0.00000002        0.00000020        0.00000004
     235         -1.048565        1.000000        0.00000027        0.00000030        0.00000120        0.00000016
     236         -1.048103        1.000000        0.00000026        0.00000034        0.00000300        0.00000049
     237         -1.048023        1.000000        0.00000061        0.00000055        0.00000365        0.00000076
     238         -1.047651        1.000000        0.00000027        0.00000022        0.00000132        0.00000023
     239         -1.047305        1.000000        0.00000030        0.00000031        0.00000307        0.00000064
     240         -1.046707        1.000000        0.00000033        0.00000042        0.00000189        0.00000038
     241         -1.046592        1.000000        0.00000036        0.00000050        0.00000189        0.00000034
     242         -1.046281        1.000000        0.00000007        0.00000010        0.00000034        0.00000007
     243         -1.045974        1.000000        0.00000049        0.00000076        0.00000476        0.00000135
     244         -1.045866        1.000000        0.00000006        0.00000008        0.00000042        0.00000010
     245         -1.045771        1.000000        0.00000009        0.00000018        0.00000109        0.00000027
     246         -1.045301        1.000000        0.00000018        0.00000040        0.00000198        0.00000049
     247         -1.045020        1.000000        0.00000020        0.00000021        0.00000227        0.00000062
     248         -1.043956        1.000000        0.00000077        0.00000178        0.00001101        0.00000327
     249         -1.043818        1.000000        0.00000024        0.00000041        0.00000328        0.00000087
     250         -1.043244        1.000000        0.00000025        0.00000048        0.00000282        0.00000079
     251         -1.043119        1.000000        0.00000002        0.00000004        0.00000042        0.00000012
     252         -1.042993        1.000000        0.00000023        0.00000039        0.00000311        0.00000092
     253         -1.042515        1.000000        0.00000113        0.00000210        0.00001999        0.00000609
     254         -1.041302        1.000000        0.00000007        0.00000009        0.00000079        0.00000016
     255         -1.041116        1.000000        0.00000026        0.00000031        0.00000276        0.00000051
     256         -1.040594        1.000000        0.00000003        0.00000005        0.00000050        0.00000014
     257         -1.040094        1.000000        0.00000022        0.00000029        0.00000303        0.00000069
     258         -1.039599        1.000000        0.00000006        0.00000010        0.00000076        0.00000014
     259         -1.039408        1.000000        0.00000013        0.00000018        0.00000159        0.00000031