# Projected DOS for list 369 of 1 atoms, at iteration step i = 0, E(Fermi) =    -0.237583 a.u.
#     MO Eigenvalue [a.u.]      Occupation                 s                 p
       1         -3.115895        1.000000        0.00000000        0.00000008
       2         -3.112717        1.000000        0.00000000        0.00000005
       3         -3.112103        1.000000        0.00000001        0.00000018
       4         -3.111180        1.000000        0.00000000        0.00000010
       5         -3.110810        1.000000        0.00000004        0.00000197
       6         -3.110575        1.000000        0.00000000        0.00000055
       7         -3.110067        1.000000        0.00000119        0.00001418
       8         -3.109817        1.000000        0.00000013        0.00000230
       9         -3.109660        1.000000        0.00000000        0.00000002
      10         -3.108831        1.000000        0.00000090        0.00001808
      11         -3.108678        1.000000        0.00000196        0.00002884
      12         -3.108578        1.000000        0.00000018        0.00000424
      13         -3.108350        1.000000        0.00000000        0.00000071
      14         -3.108163        1.000000        0.00000128        0.00000940
      15         -3.107948        1.000000        0.00000144        0.00001308
      16         -3.107865        1.000000        0.00000016        0.00000167
      17         -3.107703        1.000000        0.00000018        0.00000129
      18         -3.107683        1.000000        0.00000001        0.00000012
      19         -3.107641        1.000000        0.00000002        0.00000023
      20         -3.107604        1.000000        0.00000006        0.00000055
      21         -3.107402        1.000000        0.00000016        0.00000157
      22         -3.107115        1.000000        0.00000034        0.00000469
      23         -3.107013        1.000000        0.00000277        0.00002118
      24         -3.106750        1.000000        0.00000020        0.00000120
      25         -3.106619        1.000000        0.00000065        0.00000453
      26         -3.106567        1.000000        0.00000001        0.00000029
      27         -3.106546        1.000000        0.00000000        0.00000011
      28         -3.106258        1.000000        0.00000056        0.00000647
      29         -3.106103        1.000000        0.00000070        0.00001652
      30         -3.104674        1.000000        0.00000498        0.00001672
      31         -1.775522        1.000000        0.00000005        0.00000019
      32         -1.773964        1.000000        0.00000005        0.00000017
      33         -1.773454        1.000000        0.00000000        0.00000001
      34         -1.773008        1.000000        0.00000000        0.00000001
      35         -1.772581        1.000000        0.00000003        0.00000029
      36         -1.772213        1.000000        0.00000002        0.00000013
      37         -1.771852        1.000000        0.00000002        0.00000004
      38         -1.771444        1.000000        0.00000027        0.00000164
      39         -1.771233        1.000000        0.00000002        0.00000002
      40         -1.770977        1.000000        0.00000023        0.00000058
      41         -1.770760        1.000000        0.00000003        0.00000010
      42         -1.770111        1.000000        0.00000001        0.00000031
      43         -1.770034        1.000000        0.00000033        0.00000170
      44         -1.769495        1.000000        0.00000002        0.00000034
      45         -1.769421        1.000000        0.00000019        0.00000119
      46         -1.769063        1.000000        0.00000007        0.00000025
      47         -1.768532        1.000000        0.00000002        0.00000029
      48         -1.768412        1.000000        0.00000005        0.00000032
      49         -1.767811        1.000000        0.00000014        0.00000032
      50         -1.767614        1.000000        0.00000009        0.00000036
      51         -1.767477        1.000000        0.00000007        0.00000056
      52         -1.765531        1.000000        0.00000003        0.00000005
      53         -1.765088        1.000000        0.00000000        0.00000026
      54         -1.764557        1.000000        0.00000002        0.00000011
      55         -1.763772        1.000000        0.00000000        0.00000028
      56         -1.763328        1.000000        0.00000000        0.00000036
      57         -1.762925        1.000000        0.00000001        0.00000148
      58         -1.762506        1.000000        0.00000000        0.00000061
      59         -1.762119        1.000000        0.00000002        0.00000063
      60         -1.762053        1.000000        0.00000000        0.00000009
      61         -1.761895        1.000000        0.00000002        0.00000040
      62         -1.761602        1.000000        0.00000006        0.00000061
      63         -1.761509        1.000000        0.00000002        0.00000016
      64         -1.761377        1.000000        0.00000000        0.00000024
      65         -1.761171        1.000000        0.00000000        0.00000012
      66         -1.760998        1.000000        0.00000001        0.00000038
      67         -1.760877        1.000000        0.00000007        0.00000017
      68         -1.760806        1.000000        0.00000003        0.00000002
      69         -1.760684        1.000000        0.00000008        0.00000141
      70         -1.760645        1.000000        0.00000029        0.00000029
      71         -1.760442        1.000000        0.00000012        0.00000006
      72         -1.760098        1.000000        0.00000001        0.00000004
      73         -1.759962        1.000000        0.00000002        0.00000032
      74         -1.759824        1.000000        0.00000003        0.00000012
      75         -1.759787        1.000000        0.00000002        0.00000053
      76         -1.759638        1.000000        0.00000004        0.00000007
      77         -1.759601        1.000000        0.00000000        0.00000001
      78         -1.759512        1.000000        0.00000007        0.00000002
      79         -1.759406        1.000000        0.00000000        0.00000027
      80         -1.759287        1.000000        0.00000004        0.00000013
      81         -1.759176        1.000000        0.00000000        0.00000059
      82         -1.758872        1.000000        0.00000005        0.00000033
      83         -1.758781        1.000000        0.00000000        0.00000007
      84         -1.758726        1.000000        0.00000002        0.00000004
      85         -1.758559        1.000000        0.00000004        0.00000004
      86         -1.758378        1.000000        0.00000001        0.00000001
      87         -1.758294        1.000000        0.00000000        0.00000001
      88         -1.758087        1.000000        0.00000002        0.00000003
      89         -1.757987        1.000000        0.00000007        0.00000015
      90         -1.757734        1.000000        0.00000011        0.00000011
      91         -1.757649        1.000000        0.00000002        0.00000019
      92         -1.757529        1.000000        0.00000003        0.00000022
      93         -1.757404        1.000000        0.00000000        0.00000005
      94         -1.757324        1.000000        0.00000000        0.00000001
      95         -1.757187        1.000000        0.00000050        0.00000045
      96         -1.757137        1.000000        0.00000002        0.00000012
      97         -1.756770        1.000000        0.00000008        0.00000003
      98         -1.756598        1.000000        0.00000038        0.00000037
      99         -1.756513        1.000000        0.00000001        0.00000010
     100         -1.756186        1.000000        0.00000000        0.00000009
     101         -1.755847        1.000000        0.00000002        0.00000009
     102         -1.755716        1.000000        0.00000004        0.00000006
     103         -1.755306        1.000000        0.00000007        0.00000019
     104         -1.755052        1.000000        0.00000000        0.00000003
     105         -1.754765        1.000000        0.00000008        0.00000021
     106         -1.754094        1.000000        0.00000002        0.00000009
     107         -1.753681        1.000000        0.00000002        0.00000002
     108         -1.753548        1.000000        0.00000002        0.00000017
     109         -1.753256        1.000000        0.00000000        0.00000003
     110         -1.752675        1.000000        0.00000003        0.00000018
     111         -1.752502        1.000000        0.00000002        0.00000004
     112         -1.752253        1.000000        0.00000001        0.00000002
     113         -1.751643        1.000000        0.00000001        0.00000010
     114         -1.751317        1.000000        0.00000031        0.00000100
     115         -1.749193        1.000000        0.00000000        0.00000000
     116         -1.748137        1.000000        0.00000000        0.00000000
     117         -1.747283        1.000000        0.00000000        0.00000000
     118         -1.745962        1.000000        0.00000000        0.00000000
     119         -1.745880        1.000000        0.00000000        0.00000000
     120         -1.744143        1.000000        0.00000000        0.00000003
     121         -1.145318        1.000000        0.00000421        0.00001053
     122         -1.141162        1.000000        0.00001544        0.00003360
     123         -1.135518        1.000000        0.00000989        0.00001884
     124         -1.134356        1.000000        0.00002104        0.00003070
     125         -1.132797        1.000000        0.00000360        0.00000403
     126         -1.131675        1.000000        0.00000800        0.00000914
     127         -1.130657        1.000000        0.00000040        0.00000131
     128         -1.129329        1.000000        0.00002366        0.00002528
     129         -1.127805        1.000000        0.00000496        0.00001838
     130         -1.126970        1.000000        0.00026485        0.00029486
     131         -1.125100        1.000000        0.00008960        0.00006834
     132         -1.124640        1.000000        0.00001875        0.00001764
     133         -1.122028        1.000000        0.00008821        0.00008271
     134         -1.120887        1.000000        0.00000004        0.00001086
     135         -1.119308        1.000000        0.00056231        0.00034538
     136         -1.118408        1.000000        0.00056522        0.00036513
     137         -1.117769        1.000000        0.00017786        0.00012000
     138         -1.116570        1.000000        0.00233459        0.00140904
     139         -1.115096        1.000000        0.00067194        0.00035705
     140         -1.114402        1.000000        0.00000017        0.00000427
     141         -1.114039        1.000000        0.00000503        0.00000993
     142         -1.112381        1.000000        0.00002027        0.00002656
     143         -1.111588        1.000000        0.00109927        0.00057521
     144         -1.111356        1.000000        0.00021639        0.00023169
     145         -1.110913        1.000000        0.00009748        0.00004507
     146         -1.109631        1.000000        0.00099493        0.00045716
     147         -1.107338        1.000000        0.00007912        0.00003864
     148         -1.107163        1.000000        0.00111275        0.00057596
     149         -1.106911        1.000000        0.00596845        0.00306375
     150         -1.105904        1.000000        0.00058022        0.00029121
     151         -1.104513        1.000000        0.03790089        0.01805435
     152         -1.103753        1.000000        0.09499728        0.04238345
     153         -1.103233        1.000000        0.00001689        0.00003200
     154         -1.101116        1.000000        0.00050248        0.00026718
     155         -1.099878        1.000000        0.00450990        0.00186330
     156         -1.099527        1.000000        0.00963028        0.00370577
     157         -1.099360        1.000000        0.00024873        0.00010068
     158         -1.097449        1.000000        0.00111291        0.00044168
     159         -1.097246        1.000000        0.00043210        0.00020747
     160         -1.096336        1.000000        0.00029532        0.00010946
     161         -1.095776        1.000000        0.00017044        0.00004683
     162         -1.094258        1.000000        0.00329584        0.00096396
     163         -1.093701        1.000000        0.00000606        0.00000637
     164         -1.093107        1.000000        0.00106292        0.00024868
     165         -1.091600        1.000000        0.00051109        0.00012066
     166         -1.090890        1.000000        0.00016298        0.00008132
     167         -1.090283        1.000000        0.00005208        0.00002160
     168         -1.089378        1.000000        0.00088597        0.00019384
     169         -1.088506        1.000000        0.00000306        0.00008489
     170         -1.086931        1.000000        0.00035344        0.00006250
     171         -1.086367        1.000000        0.00000200        0.00000561
     172         -1.085327        1.000000        0.00000771        0.00000010
     173         -1.084766        1.000000        0.00000087        0.00000425
     174         -1.083961        1.000000        0.00002993        0.00000695
     175         -1.082920        1.000000        0.00010428        0.00003335
     176         -1.081700        1.000000        0.00000652        0.00000138
     177         -1.081031        1.000000        0.00019917        0.00006835
     178         -1.080558        1.000000        0.00048463        0.00020486
     179         -1.080415        1.000000        0.00003813        0.00001467
     180         -1.080047        1.000000        0.00020015        0.00009744
     181         -1.077309        1.000000        0.00016431        0.00006922
     182         -1.076601        1.000000        0.00013089        0.00005876
     183         -1.076342        1.000000        0.00012254        0.00005001
     184         -1.076154        1.000000        0.00083640        0.00044466
     185         -1.075469        1.000000        0.00038710        0.00016398
     186         -1.074904        1.000000        0.00001430        0.00000885
     187         -1.074160        1.000000        0.00018247        0.00012225
     188         -1.073364        1.000000        0.00001123        0.00001841
     189         -1.071841        1.000000        0.00013462        0.00005840
     190         -1.071436        1.000000        0.00000893        0.00002828
     191         -1.070358        1.000000        0.00031529        0.00023475
     192         -1.070160        1.000000        0.00005840        0.00000355
     193         -1.069551        1.000000        0.00001631        0.00000411
     194         -1.069042        1.000000        0.00002111        0.00001644
     195         -1.068018        1.000000        0.00005993        0.00009713
     196         -1.067683        1.000000        0.00002549        0.00004614
     197         -1.067094        1.000000        0.00005746        0.00004445
     198         -1.066200        1.000000        0.00018295        0.00006737
     199         -1.065105        1.000000        0.00048488        0.00030440
     200         -1.064600        1.000000        0.00004805        0.00000354
     201         -1.063825        1.000000        0.00009711        0.00042681
     202         -1.063672        1.000000        0.00002643        0.00004308
     203         -1.062915        1.000000        0.00013072        0.00001896
     204         -1.062259        1.000000        0.00006079        0.00004428
     205         -1.061986        1.000000        0.00007669        0.00003155
     206         -1.060822        1.000000        0.00022530        0.00002142
     207         -1.060230        1.000000        0.00001754        0.00002267
     208         -1.059971        1.000000        0.00046556        0.00008983
     209         -1.059399        1.000000        0.00001267        0.00000932
     210         -1.058798        1.000000        0.00003531        0.00001576
     211         -1.058498        1.000000        0.00007802        0.00000999
     212         -1.057049        1.000000        0.00000045        0.00001394
     213         -1.056896        1.000000        0.00000314        0.00000991
     214         -1.056403        1.000000        0.00002660        0.00001950
     215         -1.056079        1.000000        0.00000022        0.00000398
     216         -1.055624        1.000000        0.00000988        0.00000185
     217         -1.055288        1.000000        0.00001490        0.00000912
     218         -1.054828        1.000000        0.00000141        0.00000620
     219         -1.054413        1.000000        0.00000212        0.00002590
     220         -1.053990        1.000000        0.00006756        0.00001625
     221         -1.053598        1.000000        0.00002475        0.00001081
     222         -1.053387        1.000000        0.00010466        0.00009182
     223         -1.052953        1.000000        0.00000705        0.00000017
     224         -1.052779        1.000000        0.00002150        0.00001373
     225         -1.052376        1.000000        0.00003699        0.00002286
     226         -1.052297        1.000000        0.00003276        0.00000939
     227         -1.051819        1.000000        0.00000042        0.00001004
     228         -1.051536        1.000000        0.00055785        0.00021684
     229         -1.051232        1.000000        0.00002196        0.00001935
     230         -1.050581        1.000000        0.00007398        0.00003957
     231         -1.050140        1.000000        0.00002264        0.00001940
     232         -1.049834        1.000000        0.00000575        0.00000374
     233         -1.049588        1.000000        0.00001867        0.00000778
     234         -1.049506        1.000000        0.00000101        0.00000084
     235         -1.048565        1.000000        0.00014307        0.00004235
     236         -1.048103        1.000000        0.00006938        0.00002051
     237         -1.048023        1.000000        0.00006205        0.00001839
     238         -1.047651        1.000000        0.00000260        0.00000378
     239         -1.047305        1.000000        0.00000888        0.00000866
     240         -1.046707        1.000000        0.00010728        0.00002863
     241         -1.046592        1.000000        0.00006181        0.00001566
     242         -1.046281        1.000000        0.00000109        0.00000151
     243         -1.045974        1.000000        0.00001195        0.00004460
     244         -1.045866        1.000000        0.00009364        0.00002054
     245         -1.045771        1.000000        0.00025224        0.00004488
     246         -1.045301        1.000000        0.00009739        0.00013999
     247         -1.045020        1.000000        0.00062262        0.00013444
     248         -1.043956        1.000000        0.00001968        0.00021086
     249         -1.043818        1.000000        0.00004720        0.00003259
     250         -1.043244        1.000000        0.00005309        0.00008525
     251         -1.043119        1.000000        0.00001386        0.00000195
     252         -1.042993        1.000000        0.00002768        0.00005519
     253         -1.042515        1.000000        0.00006656        0.00018630
     254         -1.041302        1.000000        0.00002403        0.00000633
     255         -1.041116        1.000000        0.00010892        0.00003169
     256         -1.040594        1.000000        0.00000414        0.00000166
     257         -1.040094        1.000000        0.00001962        0.00000431
     258         -1.039599        1.000000        0.00003092        0.00000666
     259         -1.039408        1.000000        0.00010162        0.00001916
     260         -1.038970        1.000000        0.00001836        0.00000334
     261         -1.038561        1.000000        0.00000198        0.00000043
     262         -1.038022        1.000000        0.00000028        0.00000006
     263         -1.037841        1.000000        0.00001160        0.00000429
     264         -1.036991        1.000000        0.00000387        0.00000108
     265         -1.036854        1.000000        0.00001202        0.00000447
     266         -1.035910        1.000000        0.00000000        0.00000003
     267         -1.035115        1.000000        0.00000076        0.00000057
     268         -1.034275        1.000000        0.00000070        0.00000023
     269         -1.033697        1.000000        0.00000324        0.00000086
     270         -1.033444        1.000000        0.00009170        0.00003147
     271         -1.033385        1.000000        0.00007973        0.00002729
     272         -1.033262        1.000000        0.00000100        0.00000034
     273         -1.032346        1.000000        0.00021870        0.00007215
     274         -1.031626        1.000000        0.00000192        0.00000061
     275         -1.030746        1.000000        0.00000003        0.00000001
     276         -1.029780        1.000000        0.00000039        0.00000010
     277         -1.028980        1.000000        0.00000115        0.00000025
     278         -1.027492        1.000000        0.00001289        0.00000192
     279         -1.025795        1.000000        0.00010734        0.00004636
     280         -1.023990        1.000000        0.00001349        0.00000614
     281         -1.022755        1.000000        0.00000001        0.00000003
     282         -1.019871        1.000000        0.00000000        0.00000000
     283         -1.017737        1.000000        0.00000086        0.00000063
     284         -1.012409        1.000000        0.00000044        0.00000014
     285         -1.010522        1.000000        0.00000000        0.00000000
     286         -0.880961        1.000000        0.00000710        0.00032540
     287         -0.861761        1.000000        0.00001731        0.00037442
     288         -0.860652        1.000000        0.00000023        0.00006389
     289         -0.854811        1.000000        0.00000136        0.00006219
     290         -0.853189        1.000000        0.00001608        0.00027830
     291         -0.838407        1.000000        0.00001099        0.00011421
     292         -0.837131        1.000000        0.00000106        0.00005692
     293         -0.835422        1.000000        0.00002266        0.00026047
     294         -0.832873        1.000000        0.00000422        0.00007058
     295         -0.813092        1.000000        0.00002491        0.00023006
     296         -0.811309        1.000000        0.00002346        0.00013816
     297         -0.805633        1.000000        0.00000581        0.00013571
     298         -0.800994        1.000000        0.00005172        0.00062690
     299         -0.798544        1.000000        0.00000033        0.00006521
     300         -0.797176        1.000000        0.00000427        0.00007237
     301         -0.796065        1.000000        0.00001581        0.00010146
     302         -0.795247        1.000000        0.00000015        0.00000239
     303         -0.794465        1.000000        0.00000027        0.00001242
     304         -0.792558        1.000000        0.00003453        0.00018303
     305         -0.791532        1.000000        0.00000516        0.00010269
     306         -0.790931        1.000000        0.00000404        0.00003418
     307         -0.790366        1.000000        0.00000517        0.00007942
     308         -0.787916        1.000000        0.00000821        0.00008577
     309         -0.786681        1.000000        0.00000787        0.00007274
     310         -0.785900        1.000000        0.00002242        0.00017743
     311         -0.785502        1.000000        0.00000222        0.00002939
     312         -0.784837        1.000000        0.00001265        0.00010138
     313         -0.783950        1.000000        0.00000090        0.00001853
     314         -0.783030        1.000000        0.00000068        0.00003034
     315         -0.781274        1.000000        0.00000071        0.00001637
     316         -0.780386        1.000000        0.00001284        0.00005144
     317         -0.779166        1.000000        0.00001410        0.00010364
     318         -0.778511        1.000000        0.00000367        0.00001385
     319         -0.774158        1.000000        0.00001417        0.00008983
     320         -0.771889        1.000000        0.00000157        0.00001330
     321         -0.771572        1.000000        0.00000004        0.00000068
     322         -0.771179        1.000000        0.00000857        0.00005927
     323         -0.768785        1.000000        0.00002399        0.00011138
     324         -0.767359        1.000000        0.00003472        0.00016776
     325         -0.766584        1.000000        0.00000181        0.00001550
     326         -0.766329        1.000000        0.00000139        0.00000431
     327         -0.765063        1.000000        0.00000281        0.00001768
     328         -0.764345        1.000000        0.00000346        0.00001941
     329         -0.763991        1.000000        0.00000830        0.00003867
     330         -0.763040        1.000000        0.00000025        0.00000455
     331         -0.762394        1.000000        0.00000013        0.00000427
     332         -0.761901        1.000000        0.00000515        0.00002068
     333         -0.761725        1.000000        0.00000242        0.00001025
     334         -0.760117        1.000000        0.00000087        0.00000726
     335         -0.759732        1.000000        0.00000377        0.00002314
     336         -0.759057        1.000000        0.00000433        0.00001453
     337         -0.757838        1.000000        0.00000012        0.00001353
     338         -0.754831        1.000000        0.00000020        0.00000278
     339         -0.753708        1.000000        0.00000033        0.00000145
     340         -0.753375        1.000000        0.00000218        0.00001235
     341         -0.751671        1.000000        0.00000095        0.00000341
     342         -0.750037        1.000000        0.00000006        0.00000039
     343         -0.749186        1.000000        0.00000470        0.00001642
     344         -0.748889        1.000000        0.00000164        0.00000451
     345         -0.746995        1.000000        0.00000161        0.00000644
     346         -0.718177        1.000000        0.00000001        0.00000221
     347         -0.705802        1.000000        0.00000053        0.00000067
     348         -0.703896        1.000000        0.00000036        0.00000021
     349         -0.699323        1.000000        0.00000038        0.00001371
     350         -0.697252        1.000000        0.00000015        0.00000051
     351         -0.695572        1.000000        0.00000000        0.00000001
     352         -0.690990        1.000000        0.00000001        0.00000048
     353         -0.687608        1.000000        0.00000184        0.00003389
     354         -0.686710        1.000000        0.00000028        0.00000923
     355         -0.685600        1.000000        0.00000867        0.00000116
     356         -0.681933        1.000000        0.00000056        0.00000315
     357         -0.681818        1.000000        0.00000077        0.00000766
     358         -0.680598        1.000000        0.00001307        0.00000132
     359         -0.677631        1.000000        0.00000157        0.00000771
     360         -0.676231        1.000000        0.00000049        0.00000527
     361         -0.675184        1.000000        0.00000135        0.00000390
     362         -0.673914        1.000000        0.00000038        0.00001730
     363         -0.670819        1.000000        0.00000616        0.00000325
     364         -0.668535        1.000000        0.00000339        0.00001098
     365         -0.666745        1.000000        0.00001061        0.00000458
     366         -0.665099        1.000000        0.00004685        0.00001158
     367         -0.664004        1.000000        0.00001156        0.00001502
     368         -0.662322        1.000000        0.00000756        0.00001040
     369         -0.662102        1.000000        0.00001002        0.00001800
     370         -0.660198        1.000000        0.00000004        0.00000000
     371         -0.658748        1.000000        0.00000013        0.00000794
     372         -0.658127        1.000000        0.00001080        0.00000501
     373         -0.656827        1.000000        0.00001208        0.00000587
     374         -0.654564        1.000000        0.00000440        0.00000570
     375         -0.653081        1.000000        0.00000919        0.00000313
     376         -0.649207        1.000000        0.00000057        0.00000340
     377         -0.648953        1.000000        0.00000366        0.00000105