# Projected DOS for list 80 of 1 atoms, at iteration step i = 0, E(Fermi) =    -0.237583 a.u.
#     MO Eigenvalue [a.u.]      Occupation                 s                 p                 d
       1         -3.115895        1.000000        0.00000000        0.00000000        0.00000000
       2         -3.112717        1.000000        0.00000000        0.00000000        0.00000000
       3         -3.112103        1.000000        0.00000000        0.00000000        0.00000000
       4         -3.111180        1.000000        0.00000000        0.00000000        0.00000000
       5         -3.110810        1.000000        0.00000000        0.00000000        0.00000000
       6         -3.110575        1.000000        0.00000000        0.00000000        0.00000000
       7         -3.110067        1.000000        0.00000000        0.00000000        0.00000000
       8         -3.109817        1.000000        0.00000000        0.00000000        0.00000000
       9         -3.109660        1.000000        0.00000000        0.00000000        0.00000000
      10         -3.108831        1.000000        0.00000000        0.00000000        0.00000000
      11         -3.108678        1.000000        0.00000000        0.00000000        0.00000000
      12         -3.108578        1.000000        0.00000000        0.00000000        0.00000000
      13         -3.108350        1.000000        0.00000000        0.00000000        0.00000000
      14         -3.108163        1.000000        0.00000000        0.00000000        0.00000000
      15         -3.107948        1.000000        0.00000000        0.00000000        0.00000000
      16         -3.107865        1.000000        0.00000000        0.00000000        0.00000000
      17         -3.107703        1.000000        0.00000000        0.00000000        0.00000000
      18         -3.107683        1.000000        0.00000000        0.00000000        0.00000000
      19         -3.107641        1.000000        0.00000000        0.00000000        0.00000000
      20         -3.107604        1.000000        0.00000000        0.00000000        0.00000000
      21         -3.107402        1.000000        0.00000000        0.00000000        0.00000000
      22         -3.107115        1.000000        0.00000000        0.00000000        0.00000000
      23         -3.107013        1.000000        0.00000000        0.00000000        0.00000000
      24         -3.106750        1.000000        0.00000000        0.00000000        0.00000000
      25         -3.106619        1.000000        0.00000000        0.00000000        0.00000000
      26         -3.106567        1.000000        0.00000000        0.00000000        0.00000000
      27         -3.106546        1.000000        0.00000000        0.00000000        0.00000000
      28         -3.106258        1.000000        0.00000000        0.00000000        0.00000000
      29         -3.106103        1.000000        0.00000000        0.00000000        0.00000000
      30         -3.104674        1.000000        0.00000000        0.00000000        0.00000000
      31         -1.775522        1.000000        0.00000000        0.00000000        0.00000000
      32         -1.773964        1.000000        0.00000000        0.00000000        0.00000000
      33         -1.773454        1.000000        0.00000000        0.00000000        0.00000000
      34         -1.773008        1.000000        0.00000000        0.00000000        0.00000000
      35         -1.772581        1.000000        0.00000000        0.00000000        0.00000000
      36         -1.772213        1.000000        0.00000000        0.00000000        0.00000000
      37         -1.771852        1.000000        0.00000000        0.00000000        0.00000000
      38         -1.771444        1.000000        0.00000000        0.00000000        0.00000000
      39         -1.771233        1.000000        0.00000000        0.00000000        0.00000000
      40         -1.770977        1.000000        0.00000000        0.00000000        0.00000000
      41         -1.770760        1.000000        0.00000000        0.00000000        0.00000000
      42         -1.770111        1.000000        0.00000000        0.00000000        0.00000000
      43         -1.770034        1.000000        0.00000000        0.00000000        0.00000000
      44         -1.769495        1.000000        0.00000000        0.00000000        0.00000000
      45         -1.769421        1.000000        0.00000000        0.00000000        0.00000000
      46         -1.769063        1.000000        0.00000000        0.00000000        0.00000000
      47         -1.768532        1.000000        0.00000000        0.00000000        0.00000000
      48         -1.768412        1.000000        0.00000000        0.00000000        0.00000000
      49         -1.767811        1.000000        0.00000000        0.00000000        0.00000000
      50         -1.767614        1.000000        0.00000000        0.00000000        0.00000000
      51         -1.767477        1.000000        0.00000000        0.00000000        0.00000000
      52         -1.765531        1.000000        0.00000000        0.00000000        0.00000000
      53         -1.765088        1.000000        0.00000000        0.00000000        0.00000000
      54         -1.764557        1.000000        0.00000000        0.00000000        0.00000000
      55         -1.763772        1.000000        0.00000000        0.00000000        0.00000000
      56         -1.763328        1.000000        0.00000000        0.00000000        0.00000000
      57         -1.762925        1.000000        0.00000000        0.00000000        0.00000000
      58         -1.762506        1.000000        0.00000000        0.00000000        0.00000000
      59         -1.762119        1.000000        0.00000000        0.00000000        0.00000000
      60         -1.762053        1.000000        0.00000000        0.00000000        0.00000000
      61         -1.761895        1.000000        0.00000000        0.00000000        0.00000000
      62         -1.761602        1.000000        0.00000000        0.00000000        0.00000000
      63         -1.761509        1.000000        0.00000000        0.00000000        0.00000000
      64         -1.761377        1.000000        0.00000000        0.00000000        0.00000000
      65         -1.761171        1.000000        0.00000000        0.00000000        0.00000000
      66         -1.760998        1.000000        0.00000000        0.00000000        0.00000000
      67         -1.760877        1.000000        0.00000000        0.00000000        0.00000000
      68         -1.760806        1.000000        0.00000000        0.00000000        0.00000000
      69         -1.760684        1.000000        0.00000000        0.00000000        0.00000000
      70         -1.760645        1.000000        0.00000000        0.00000000        0.00000000
      71         -1.760442        1.000000        0.00000000        0.00000000        0.00000000
      72         -1.760098        1.000000        0.00000000        0.00000000        0.00000000
      73         -1.759962        1.000000        0.00000000        0.00000000        0.00000000
      74         -1.759824        1.000000        0.00000000        0.00000000        0.00000000
      75         -1.759787        1.000000        0.00000000        0.00000000        0.00000000
      76         -1.759638        1.000000        0.00000000        0.00000000        0.00000000
      77         -1.759601        1.000000        0.00000000        0.00000000        0.00000000
      78         -1.759512        1.000000        0.00000000        0.00000000        0.00000000
      79         -1.759406        1.000000        0.00000000        0.00000000        0.00000000
      80         -1.759287        1.000000        0.00000000        0.00000000        0.00000000
      81         -1.759176        1.000000        0.00000000        0.00000000        0.00000000
      82         -1.758872        1.000000        0.00000000        0.00000000        0.00000000
      83         -1.758781        1.000000        0.00000000        0.00000000        0.00000000
      84         -1.758726        1.000000        0.00000000        0.00000000        0.00000000
      85         -1.758559        1.000000        0.00000000        0.00000000        0.00000000
      86         -1.758378        1.000000        0.00000000        0.00000000        0.00000000
      87         -1.758294        1.000000        0.00000000        0.00000000        0.00000000
      88         -1.758087        1.000000        0.00000000        0.00000000        0.00000000
      89         -1.757987        1.000000        0.00000000        0.00000000        0.00000000
      90         -1.757734        1.000000        0.00000000        0.00000000        0.00000000
      91         -1.757649        1.000000        0.00000000        0.00000000        0.00000000
      92         -1.757529        1.000000        0.00000000        0.00000000        0.00000000
      93         -1.757404        1.000000        0.00000000        0.00000000        0.00000000
      94         -1.757324        1.000000        0.00000000        0.00000000        0.00000000
      95         -1.757187        1.000000        0.00000000        0.00000000        0.00000000
      96         -1.757137        1.000000        0.00000000        0.00000000        0.00000000
      97         -1.756770        1.000000        0.00000000        0.00000000        0.00000000
      98         -1.756598        1.000000        0.00000000        0.00000000        0.00000000
      99         -1.756513        1.000000        0.00000000        0.00000000        0.00000000
     100         -1.756186        1.000000        0.00000000        0.00000000        0.00000000
     101         -1.755847        1.000000        0.00000000        0.00000000        0.00000000
     102         -1.755716        1.000000        0.00000000        0.00000000        0.00000000
     103         -1.755306        1.000000        0.00000000        0.00000000        0.00000000
     104         -1.755052        1.000000        0.00000000        0.00000000        0.00000000
     105         -1.754765        1.000000        0.00000000        0.00000000        0.00000000
     106         -1.754094        1.000000        0.00000000        0.00000000        0.00000000
     107         -1.753681        1.000000        0.00000000        0.00000000        0.00000000
     108         -1.753548        1.000000        0.00000000        0.00000000        0.00000000
     109         -1.753256        1.000000        0.00000000        0.00000000        0.00000000
     110         -1.752675        1.000000        0.00000000        0.00000000        0.00000000
     111         -1.752502        1.000000        0.00000000        0.00000000        0.00000000
     112         -1.752253        1.000000        0.00000000        0.00000000        0.00000000
     113         -1.751643        1.000000        0.00000000        0.00000000        0.00000000
     114         -1.751317        1.000000        0.00000000        0.00000000        0.00000000
     115         -1.749193        1.000000        0.00000000        0.00000000        0.00000000
     116         -1.748137        1.000000        0.00000000        0.00000000        0.00000000
     117         -1.747283        1.000000        0.00000000        0.00000000        0.00000000
     118         -1.745962        1.000000        0.00000000        0.00000000        0.00000000
     119         -1.745880        1.000000        0.00000000        0.00000000        0.00000000
     120         -1.744143        1.000000        0.00000000        0.00000000        0.00000000
     121         -1.145318        1.000000        0.00047234        0.00004061        0.00001195
     122         -1.141162        1.000000        0.00152788        0.00013244        0.00003480
     123         -1.135518        1.000000        0.00003658        0.00003908        0.00000161
     124         -1.134356        1.000000        0.00017845        0.00005755        0.00000520
     125         -1.132797        1.000000        0.00175042        0.00007002        0.00002850
     126         -1.131675        1.000000        0.00169029        0.00008690        0.00002805
     127         -1.130657        1.000000        0.00000067        0.00000258        0.00000083
     128         -1.129329        1.000000        0.00049660        0.00002666        0.00001043
     129         -1.127805        1.000000        0.00018358        0.00002587        0.00000386
     130         -1.126970        1.000000        0.00001713        0.00018724        0.00000618
     131         -1.125100        1.000000        0.00017123        0.00022605        0.00000992
     132         -1.124640        1.000000        0.00009204        0.00000413        0.00000191
     133         -1.122028        1.000000        0.00002071        0.00006437        0.00000142
     134         -1.120887        1.000000        0.00533877        0.00027687        0.00007969
     135         -1.119308        1.000000        0.01711911        0.00070211        0.00024402
     136         -1.118408        1.000000        0.00046739        0.00001421        0.00000867
     137         -1.117769        1.000000        0.01431007        0.00049526        0.00019203
     138         -1.116570        1.000000        0.00076124        0.00004454        0.00000510
     139         -1.115096        1.000000        0.00596238        0.00022919        0.00007478
     140         -1.114402        1.000000        0.00427147        0.00016381        0.00007020
     141         -1.114039        1.000000        0.02028223        0.00095544        0.00023862
     142         -1.112381        1.000000        0.00107706        0.00006501        0.00001559
     143         -1.111588        1.000000        0.00138994        0.00005587        0.00001045
     144         -1.111356        1.000000        0.00053965        0.00016441        0.00001940
     145         -1.110913        1.000000        0.04922668        0.00147770        0.00043644
     146         -1.109631        1.000000        0.02254850        0.00121025        0.00021682
     147         -1.107338        1.000000        0.02043684        0.00062704        0.00013589
     148         -1.107163        1.000000        0.00032878        0.00012892        0.00001674
     149         -1.106911        1.000000        0.02289044        0.00118213        0.00020102
     150         -1.105904        1.000000        0.00260779        0.00020230        0.00001603
     151         -1.104513        1.000000        0.00005041        0.00002452        0.00000147
     152         -1.103753        1.000000        0.00408256        0.00009320        0.00004098
     153         -1.103233        1.000000        0.00249183        0.00007206        0.00002307
     154         -1.101116        1.000000        0.00384668        0.00025732        0.00004986
     155         -1.099878        1.000000        0.00166189        0.00037722        0.00003466
     156         -1.099527        1.000000        0.00248090        0.00025821        0.00001646
     157         -1.099360        1.000000        0.00207422        0.00048271        0.00001028
     158         -1.097449        1.000000        0.00116809        0.00015006        0.00002687
     159         -1.097246        1.000000        0.00161737        0.00095410        0.00002330
     160         -1.096336        1.000000        0.00051000        0.00005394        0.00000409
     161         -1.095776        1.000000        0.00152597        0.00015742        0.00000854
     162         -1.094258        1.000000        0.00050219        0.00001687        0.00003088
     163         -1.093701        1.000000        0.01767720        0.00038937        0.00004693
     164         -1.093107        1.000000        0.00017596        0.00013894        0.00000677
     165         -1.091600        1.000000        0.00306910        0.00007493        0.00000625
     166         -1.090890        1.000000        0.00336518        0.00039568        0.00002634
     167         -1.090283        1.000000        0.00133556        0.00004797        0.00000443
     168         -1.089378        1.000000        0.00775025        0.00037944        0.00002942
     169         -1.088506        1.000000        0.00174302        0.00026812        0.00000288
     170         -1.086931        1.000000        0.00173945        0.00058731        0.00002464
     171         -1.086367        1.000000        0.00754720        0.00038055        0.00000947
     172         -1.085327        1.000000        0.00608116        0.00011502        0.00002495
     173         -1.084766        1.000000        0.00000530        0.00096711        0.00003219
     174         -1.083961        1.000000        0.00002350        0.00004658        0.00000202
     175         -1.082920        1.000000        0.00602938        0.00078674        0.00003848
     176         -1.081700        1.000000        0.00141574        0.00059065        0.00001039
     177         -1.081031        1.000000        0.00006146        0.00081006        0.00006164
     178         -1.080558        1.000000        0.00198172        0.00005873        0.00000811
     179         -1.080415        1.000000        0.02331256        0.00054932        0.00004499
     180         -1.080047        1.000000        0.00508233        0.00032101        0.00000984
     181         -1.077309        1.000000        0.00500404        0.00013026        0.00001838
     182         -1.076601        1.000000        0.00522045        0.00022239        0.00001201
     183         -1.076342        1.000000        0.00053291        0.00061925        0.00003712
     184         -1.076154        1.000000        0.00061987        0.00013066        0.00001562
     185         -1.075469        1.000000        0.00153308        0.00008298        0.00002729
     186         -1.074904        1.000000        0.00062313        0.00001838        0.00000720
     187         -1.074160        1.000000        0.00190426        0.00065562        0.00005771
     188         -1.073364        1.000000        0.00281715        0.00013200        0.00001247
     189         -1.071841        1.000000        0.00329483        0.00036082        0.00002127
     190         -1.071436        1.000000        0.00219534        0.00004376        0.00000455
     191         -1.070358        1.000000        0.00168073        0.00007287        0.00000944
     192         -1.070160        1.000000        0.00159500        0.00121845        0.00003715
     193         -1.069551        1.000000        0.00040931        0.00001763        0.00000105
     194         -1.069042        1.000000        0.00108270        0.00003842        0.00001002
     195         -1.068018        1.000000        0.00200150        0.00004990        0.00000798
     196         -1.067683        1.000000        0.00032126        0.00008018        0.00000588
     197         -1.067094        1.000000        0.00060260        0.00077975        0.00003929
     198         -1.066200        1.000000        0.00242950        0.00040755        0.00002795
     199         -1.065105        1.000000        0.00863722        0.00022475        0.00000723
     200         -1.064600        1.000000        0.00071448        0.00020584        0.00000509
     201         -1.063825        1.000000        0.00000764        0.00030183        0.00002642
     202         -1.063672        1.000000        0.00387555        0.00007567        0.00001288
     203         -1.062915        1.000000        0.00001027        0.00003123        0.00000777
     204         -1.062259        1.000000        0.00012125        0.00020557        0.00001914
     205         -1.061986        1.000000        0.00024152        0.00013044        0.00000459
     206         -1.060822        1.000000        0.00111965        0.00011523        0.00000233
     207         -1.060230        1.000000        0.00027393        0.00003114        0.00001409
     208         -1.059971        1.000000        0.00123314        0.00002464        0.00000377
     209         -1.059399        1.000000        0.00322618        0.00031163        0.00002558
     210         -1.058798        1.000000        0.00819907        0.00011662        0.00000530
     211         -1.058498        1.000000        0.00503597        0.00014905        0.00000657
     212         -1.057049        1.000000        0.01128206        0.00017325        0.00000737
     213         -1.056896        1.000000        0.00021474        0.00001098        0.00000719
     214         -1.056403        1.000000        0.00313092        0.00004775        0.00000814
     215         -1.056079        1.000000        0.00509564        0.00008068        0.00000947
     216         -1.055624        1.000000        0.00057692        0.00006157        0.00000534
     217         -1.055288        1.000000        0.00554951        0.00008801        0.00001056
     218         -1.054828        1.000000        0.00054689        0.00005425        0.00000473
     219         -1.054413        1.000000        0.00619904        0.00009254        0.00000762
     220         -1.053990        1.000000        0.00398573        0.00006201        0.00000377
     221         -1.053598        1.000000        0.01248019        0.00019822        0.00003610
     222         -1.053387        1.000000        0.00070126        0.00001280        0.00000249
     223         -1.052953        1.000000        0.03428275        0.00046897        0.00004587
     224         -1.052779        1.000000        0.01185660        0.00017085        0.00002738
     225         -1.052376        1.000000        0.00719405        0.00010755        0.00002698
     226         -1.052297        1.000000        0.00039411        0.00001625        0.00000200
     227         -1.051819        1.000000        0.00409336        0.00006322        0.00001383
     228         -1.051536        1.000000        0.00470873        0.00006153        0.00000036
     229         -1.051232        1.000000        0.00012752        0.00000348        0.00000548
     230         -1.050581        1.000000        0.00084622        0.00002552        0.00000935
     231         -1.050140        1.000000        0.01597496        0.00027265        0.00001422
     232         -1.049834        1.000000        0.00005482        0.00000632        0.00000870
     233         -1.049588        1.000000        0.00078985        0.00002456        0.00001861
     234         -1.049506        1.000000        0.00064320        0.00001341        0.00000912
     235         -1.048565        1.000000        0.00471304        0.00015998        0.00001779
     236         -1.048103        1.000000        0.00083183        0.00004418        0.00002380
     237         -1.048023        1.000000        0.00042329        0.00002532        0.00003685
     238         -1.047651        1.000000        0.00003679        0.00004415        0.00004601
     239         -1.047305        1.000000        0.00000106        0.00003149        0.00001502
     240         -1.046707        1.000000        0.00133855        0.00002050        0.00000142
     241         -1.046592        1.000000        0.00033987        0.00001048        0.00000717
     242         -1.046281        1.000000        0.00022001        0.00002147        0.00001087
     243         -1.045974        1.000000        0.00028224        0.00001239        0.00000627
     244         -1.045866        1.000000        0.00109160        0.00005107        0.00001068
     245         -1.045771        1.000000        0.00064223        0.00008322        0.00005726
     246         -1.045301        1.000000        0.00034813        0.00001206        0.00001243
     247         -1.045020        1.000000        0.00107816        0.00010476        0.00008401
     248         -1.043956        1.000000        0.00060766        0.00007704        0.00003533
     249         -1.043818        1.000000        0.00000126        0.00003462        0.00000935
     250         -1.043244        1.000000        0.00018119        0.00001541        0.00000634
     251         -1.043119        1.000000        0.00031749        0.00002725        0.00001192
     252         -1.042993        1.000000        0.00001654        0.00000470        0.00000656
     253         -1.042515        1.000000        0.00010590        0.00000677        0.00000187
     254         -1.041302        1.000000        0.00014288        0.00010693        0.00005959
     255         -1.041116        1.000000        0.00163003        0.00032727        0.00027163
     256         -1.040594        1.000000        0.00052307        0.00003147        0.00000961
     257         -1.040094        1.000000        0.01398287        0.00045685        0.00010859
     258         -1.039599        1.000000        0.00284654        0.00009375        0.00002393
     259         -1.039408        1.000000        0.00522853        0.00019858        0.00005639
     260         -1.038970        1.000000        0.00073952        0.00003758        0.00010359
     261         -1.038561        1.000000        0.00097928        0.00017940        0.00015243
     262         -1.038022        1.000000        0.00018424        0.00001002        0.00000377
     263         -1.037841        1.000000        0.00039437        0.00003055        0.00000790
     264         -1.036991        1.000000        0.00056596        0.00006410        0.00003836
     265         -1.036854        1.000000        0.00022263        0.00005369        0.00007547
     266         -1.035910        1.000000        0.00031962        0.00001254        0.00001059
     267         -1.035115        1.000000        0.00030907        0.00004735        0.00004750
     268         -1.034275        1.000000        0.00300618        0.00022886        0.00022641
     269         -1.033697        1.000000        0.00010893        0.00001192        0.00000328
     270         -1.033444        1.000000        0.00176810        0.00010749        0.00000193
     271         -1.033385        1.000000        0.00214921        0.00006383        0.00000573
     272         -1.033262        1.000000        0.00003356        0.00001554        0.00002929
     273         -1.032346        1.000000        0.00054811        0.00008473        0.00011267
     274         -1.031626        1.000000        0.00000079        0.00000014        0.00000046
     275         -1.030746        1.000000        0.00000270        0.00000374        0.00000356
     276         -1.029780        1.000000        0.00000449        0.00000171        0.00000034
     277         -1.028980        1.000000        0.00009042        0.00000655        0.00000343
     278         -1.027492        1.000000        0.00059359        0.00011880        0.00005728
     279         -1.025795        1.000000        0.00000001        0.00000079        0.00000204
     280         -1.023990        1.000000        0.00130566        0.00053101        0.00056881
     281         -1.022755        1.000000        0.00000063        0.00000289        0.00000141
     282         -1.019871        1.000000        0.00000001        0.00000002        0.00000001
     283         -1.017737        1.000000        0.00000061        0.00000128        0.00000034
     284         -1.012409        1.000000        0.00001536        0.00000424        0.00000280
     285         -1.010522        1.000000        0.00000025        0.00000005        0.00000002
     286         -0.880961        1.000000        0.00000001        0.00000001        0.00000000
     287         -0.861761        1.000000        0.00000000        0.00000000        0.00000000
     288         -0.860652        1.000000        0.00000000        0.00000000        0.00000000
     289         -0.854811        1.000000        0.00000000        0.00000000        0.00000000
     290         -0.853189        1.000000        0.00000000        0.00000000        0.00000000
     291         -0.838407        1.000000        0.00000000        0.00000000        0.00000000
     292         -0.837131        1.000000        0.00000000        0.00000000        0.00000000
     293         -0.835422        1.000000        0.00000000        0.00000000        0.00000000
     294         -0.832873        1.000000        0.00000000        0.00000000        0.00000000
     295         -0.813092        1.000000        0.00000000        0.00000000        0.00000000
     296         -0.811309        1.000000        0.00000000        0.00000000        0.00000000
     297         -0.805633        1.000000        0.00000001        0.00000001        0.00000000
     298         -0.800994        1.000000        0.00000000        0.00000000        0.00000000
     299         -0.798544        1.000000        0.00000000        0.00000000        0.00000000
     300         -0.797176        1.000000        0.00000000        0.00000000        0.00000000
     301         -0.796065        1.000000        0.00000000        0.00000000        0.00000000
     302         -0.795247        1.000000        0.00000000        0.00000000        0.00000000
     303         -0.794465        1.000000        0.00000000        0.00000000        0.00000000
     304         -0.792558        1.000000        0.00000000        0.00000000        0.00000000
     305         -0.791532        1.000000        0.00000000        0.00000000        0.00000000
     306         -0.790931        1.000000        0.00000000        0.00000000        0.00000000
     307         -0.790366        1.000000        0.00000000        0.00000000        0.00000000