# Projected DOS for atomic kind Ob at iteration step i = 0, E(Fermi) =    -0.237583 a.u.
#     MO Eigenvalue [a.u.]      Occupation                 s                 p                 d
       1         -3.115895        1.000000        0.00000000        0.00000000        0.00000000
       2         -3.112717        1.000000        0.00000000        0.00000000        0.00000000
       3         -3.112103        1.000000        0.00000000        0.00000000        0.00000000
       4         -3.111180        1.000000        0.00000000        0.00000000        0.00000000
       5         -3.110810        1.000000        0.00000000        0.00000000        0.00000000
       6         -3.110575        1.000000        0.00000000        0.00000000        0.00000000
       7         -3.110067        1.000000        0.00000000        0.00000000        0.00000000
       8         -3.109817        1.000000        0.00000000        0.00000000        0.00000000
       9         -3.109660        1.000000        0.00000000        0.00000000        0.00000000
      10         -3.108831        1.000000        0.00000000        0.00000000        0.00000000
      11         -3.108678        1.000000        0.00000000        0.00000000        0.00000000
      12         -3.108578        1.000000        0.00000000        0.00000000        0.00000000
      13         -3.108350        1.000000        0.00000000        0.00000000        0.00000000
      14         -3.108163        1.000000        0.00000000        0.00000000        0.00000000
      15         -3.107948        1.000000        0.00000000        0.00000000        0.00000000
      16         -3.107865        1.000000        0.00000000        0.00000000        0.00000000
      17         -3.107703        1.000000        0.00000000        0.00000000        0.00000000
      18         -3.107683        1.000000        0.00000000        0.00000000        0.00000000
      19         -3.107641        1.000000        0.00000000        0.00000000        0.00000000
      20         -3.107604        1.000000        0.00000000        0.00000000        0.00000000
      21         -3.107402        1.000000        0.00000000        0.00000000        0.00000000
      22         -3.107115        1.000000        0.00000000        0.00000000        0.00000000
      23         -3.107013        1.000000        0.00000000        0.00000000        0.00000000
      24         -3.106750        1.000000        0.00000000        0.00000000        0.00000000
      25         -3.106619        1.000000        0.00000000        0.00000000        0.00000000
      26         -3.106567        1.000000        0.00000000        0.00000000        0.00000000
      27         -3.106546        1.000000        0.00000000        0.00000000        0.00000000
      28         -3.106258        1.000000        0.00000000        0.00000000        0.00000000
      29         -3.106103        1.000000        0.00000000        0.00000000        0.00000000
      30         -3.104674        1.000000        0.00000000        0.00000000        0.00000000
      31         -1.775522        1.000000        0.00000000        0.00000000        0.00000000
      32         -1.773964        1.000000        0.00000000        0.00000000        0.00000000
      33         -1.773454        1.000000        0.00000000        0.00000000        0.00000000
      34         -1.773008        1.000000        0.00000000        0.00000000        0.00000000
      35         -1.772581        1.000000        0.00000000        0.00000000        0.00000000
      36         -1.772213        1.000000        0.00000000        0.00000000        0.00000000
      37         -1.771852        1.000000        0.00000000        0.00000000        0.00000000
      38         -1.771444        1.000000        0.00000000        0.00000000        0.00000000
      39         -1.771233        1.000000        0.00000000        0.00000000        0.00000000
      40         -1.770977        1.000000        0.00000000        0.00000000        0.00000000
      41         -1.770760        1.000000        0.00000000        0.00000000        0.00000000
      42         -1.770111        1.000000        0.00000000        0.00000000        0.00000000
      43         -1.770034        1.000000        0.00000000        0.00000000        0.00000000
      44         -1.769495        1.000000        0.00000000        0.00000000        0.00000000
      45         -1.769421        1.000000        0.00000000        0.00000000        0.00000000
      46         -1.769063        1.000000        0.00000000        0.00000000        0.00000000
      47         -1.768532        1.000000        0.00000000        0.00000000        0.00000000
      48         -1.768412        1.000000        0.00000000        0.00000000        0.00000000
      49         -1.767811        1.000000        0.00000000        0.00000000        0.00000000
      50         -1.767614        1.000000        0.00000000        0.00000000        0.00000000
      51         -1.767477        1.000000        0.00000000        0.00000000        0.00000000
      52         -1.765531        1.000000        0.00000000        0.00000000        0.00000000
      53         -1.765088        1.000000        0.00000000        0.00000000        0.00000000
      54         -1.764557        1.000000        0.00000000        0.00000000        0.00000000
      55         -1.763772        1.000000        0.00000000        0.00000000        0.00000000
      56         -1.763328        1.000000        0.00000000        0.00000000        0.00000000
      57         -1.762925        1.000000        0.00000000        0.00000000        0.00000000
      58         -1.762506        1.000000        0.00000000        0.00000000        0.00000000
      59         -1.762119        1.000000        0.00000000        0.00000000        0.00000000
      60         -1.762053        1.000000        0.00000000        0.00000000        0.00000000
      61         -1.761895        1.000000        0.00000000        0.00000000        0.00000000
      62         -1.761602        1.000000        0.00000000        0.00000000        0.00000000
      63         -1.761509        1.000000        0.00000000        0.00000000        0.00000000
      64         -1.761377        1.000000        0.00000000        0.00000000        0.00000000
      65         -1.761171        1.000000        0.00000000        0.00000000        0.00000000
      66         -1.760998        1.000000        0.00000000        0.00000000        0.00000000
      67         -1.760877        1.000000        0.00000000        0.00000000        0.00000000
      68         -1.760806        1.000000        0.00000000        0.00000000        0.00000000
      69         -1.760684        1.000000        0.00000000        0.00000000        0.00000000
      70         -1.760645        1.000000        0.00000000        0.00000000        0.00000000
      71         -1.760442        1.000000        0.00000000        0.00000000        0.00000000
      72         -1.760098        1.000000        0.00000000        0.00000000        0.00000000
      73         -1.759962        1.000000        0.00000000        0.00000000        0.00000000
      74         -1.759824        1.000000        0.00000000        0.00000000        0.00000000
      75         -1.759787        1.000000        0.00000000        0.00000000        0.00000000
      76         -1.759638        1.000000        0.00000000        0.00000000        0.00000000
      77         -1.759601        1.000000        0.00000000        0.00000000        0.00000000
      78         -1.759512        1.000000        0.00000000        0.00000000        0.00000000
      79         -1.759406        1.000000        0.00000000        0.00000000        0.00000000
      80         -1.759287        1.000000        0.00000000        0.00000000        0.00000000
      81         -1.759176        1.000000        0.00000000        0.00000000        0.00000000
      82         -1.758872        1.000000        0.00000000        0.00000000        0.00000000
      83         -1.758781        1.000000        0.00000000        0.00000000        0.00000000
      84         -1.758726        1.000000        0.00000000        0.00000000        0.00000000
      85         -1.758559        1.000000        0.00000000        0.00000000        0.00000000
      86         -1.758378        1.000000        0.00000000        0.00000000        0.00000000
      87         -1.758294        1.000000        0.00000000        0.00000000        0.00000000
      88         -1.758087        1.000000        0.00000000        0.00000000        0.00000000
      89         -1.757987        1.000000        0.00000000        0.00000000        0.00000000
      90         -1.757734        1.000000        0.00000000        0.00000000        0.00000000
      91         -1.757649        1.000000        0.00000000        0.00000000        0.00000000
      92         -1.757529        1.000000        0.00000000        0.00000000        0.00000000
      93         -1.757404        1.000000        0.00000000        0.00000000        0.00000000
      94         -1.757324        1.000000        0.00000000        0.00000000        0.00000000
      95         -1.757187        1.000000        0.00000000        0.00000000        0.00000000
      96         -1.757137        1.000000        0.00000000        0.00000000        0.00000000
      97         -1.756770        1.000000        0.00000000        0.00000000        0.00000000
      98         -1.756598        1.000000        0.00000000        0.00000000        0.00000000
      99         -1.756513        1.000000        0.00000000        0.00000000        0.00000000
     100         -1.756186        1.000000        0.00000000        0.00000000        0.00000000
     101         -1.755847        1.000000        0.00000000        0.00000000        0.00000000
     102         -1.755716        1.000000        0.00000000        0.00000000        0.00000000
     103         -1.755306        1.000000        0.00000000        0.00000000        0.00000000
     104         -1.755052        1.000000        0.00000000        0.00000000        0.00000000
     105         -1.754765        1.000000        0.00000000        0.00000000        0.00000000
     106         -1.754094        1.000000        0.00000000        0.00000000        0.00000000
     107         -1.753681        1.000000        0.00000000        0.00000000        0.00000000
     108         -1.753548        1.000000        0.00000000        0.00000000        0.00000000
     109         -1.753256        1.000000        0.00000000        0.00000000        0.00000000
     110         -1.752675        1.000000        0.00000000        0.00000000        0.00000000
     111         -1.752502        1.000000        0.00000000        0.00000000        0.00000000
     112         -1.752253        1.000000        0.00000000        0.00000000        0.00000000
     113         -1.751643        1.000000        0.00000000        0.00000000        0.00000000
     114         -1.751317        1.000000        0.00000000        0.00000000        0.00000000
     115         -1.749193        1.000000        0.00000000        0.00000000        0.00000000
     116         -1.748137        1.000000        0.00000000        0.00000000        0.00000000
     117         -1.747283        1.000000        0.00000000        0.00000000        0.00000000
     118         -1.745962        1.000000        0.00000000        0.00000000        0.00000000
     119         -1.745880        1.000000        0.00000000        0.00000000        0.00000000
     120         -1.744143        1.000000        0.00000000        0.00000000        0.00000000
     121         -1.145318        1.000000        0.00219042        0.00058007        0.00007327
     122         -1.141162        1.000000        0.00265442        0.00059103        0.00008136
     123         -1.135518        1.000000        0.00175759        0.00034919        0.00004877
     124         -1.134356        1.000000        0.01329088        0.00213325        0.00031569
     125         -1.132797        1.000000        0.01771851        0.00268356        0.00038095
     126         -1.131675        1.000000        0.02702785        0.00365532        0.00054698
     127         -1.130657        1.000000        0.03861849        0.00586596        0.00078093
     128         -1.129329        1.000000        0.00524750        0.00090802        0.00012042
     129         -1.127805        1.000000        0.00315487        0.00042368        0.00005973
     130         -1.126970        1.000000        0.00147016        0.00036482        0.00005358
     131         -1.125100        1.000000        0.00637713        0.00073458        0.00011066
     132         -1.124640        1.000000        0.00289087        0.00061747        0.00009570
     133         -1.122028        1.000000        0.00478756        0.00110058        0.00015332
     134         -1.120887        1.000000        0.01385117        0.00300404        0.00042392
     135         -1.119308        1.000000        0.00471062        0.00094022        0.00013487
     136         -1.118408        1.000000        0.03150687        0.00579807        0.00078425
     137         -1.117769        1.000000        0.02244560        0.00409919        0.00056787
     138         -1.116570        1.000000        0.00132012        0.00032010        0.00004450
     139         -1.115096        1.000000        0.02851622        0.00471274        0.00068357
     140         -1.114402        1.000000        0.02086058        0.00313389        0.00044427
     141         -1.114039        1.000000        0.00584746        0.00092783        0.00014957
     142         -1.112381        1.000000        0.01067063        0.00225129        0.00031710
     143         -1.111588        1.000000        0.03406337        0.00522692        0.00067498
     144         -1.111356        1.000000        0.00665645        0.00097460        0.00013916
     145         -1.110913        1.000000        0.01875369        0.00239412        0.00035562
     146         -1.109631        1.000000        0.00807028        0.00117058        0.00018305
     147         -1.107338        1.000000        0.01738339        0.00264951        0.00042975
     148         -1.107163        1.000000        0.02693909        0.00375814        0.00063028
     149         -1.106911        1.000000        0.02000454        0.00242578        0.00042845
     150         -1.105904        1.000000        0.04322557        0.00458149        0.00064985
     151         -1.104513        1.000000        0.01665301        0.00185972        0.00029755
     152         -1.103753        1.000000        0.00673713        0.00099394        0.00016581
     153         -1.103233        1.000000        0.00688356        0.00053938        0.00011936
     154         -1.101116        1.000000        0.01552104        0.00138165        0.00020599
     155         -1.099878        1.000000        0.01098138        0.00132506        0.00027205
     156         -1.099527        1.000000        0.01230824        0.00124366        0.00026106
     157         -1.099360        1.000000        0.01595074        0.00097682        0.00013460
     158         -1.097449        1.000000        0.04350163        0.00316695        0.00043911
     159         -1.097246        1.000000        0.02268222        0.00266633        0.00034893
     160         -1.096336        1.000000        0.03704301        0.00291396        0.00043971
     161         -1.095776        1.000000        0.07172398        0.00495540        0.00063370
     162         -1.094258        1.000000        0.03206456        0.00182030        0.00033798
     163         -1.093701        1.000000        0.02724174        0.00148933        0.00025284
     164         -1.093107        1.000000        0.02765535        0.00227392        0.00038933
     165         -1.091600        1.000000        0.07240422        0.00321849        0.00063818
     166         -1.090890        1.000000        0.02517008        0.00163867        0.00027671
     167         -1.090283        1.000000        0.07290821        0.00429982        0.00062958
     168         -1.089378        1.000000        0.03663972        0.00206128        0.00039236
     169         -1.088506        1.000000        0.02694128        0.00142321        0.00022041
     170         -1.086931        1.000000        0.03642160        0.00221300        0.00038026
     171         -1.086367        1.000000        0.02702445        0.00118415        0.00023396
     172         -1.085327        1.000000        0.02376688        0.00091422        0.00019625
     173         -1.084766        1.000000        0.09390838        0.00520817        0.00083942
     174         -1.083961        1.000000        0.12950331        0.00540343        0.00082441
     175         -1.082920        1.000000        0.03478789        0.00200120        0.00033853
     176         -1.081700        1.000000        0.05925890        0.00228041        0.00040904
     177         -1.081031        1.000000        0.01689672        0.00169622        0.00030718
     178         -1.080558        1.000000        0.03133695        0.00141332        0.00032248
     179         -1.080415        1.000000        0.04796426        0.00158790        0.00031477
     180         -1.080047        1.000000        0.03022763        0.00132125        0.00019201
     181         -1.077309        1.000000        0.03347873        0.00104034        0.00017987
     182         -1.076601        1.000000        0.05547639        0.00206043        0.00042608
     183         -1.076342        1.000000        0.08070673        0.00301777        0.00052556
     184         -1.076154        1.000000        0.02004107        0.00076799        0.00015189
     185         -1.075469        1.000000        0.06066130        0.00216046        0.00035587
     186         -1.074904        1.000000        0.10820422        0.00339256        0.00059797
     187         -1.074160        1.000000        0.05611187        0.00223622        0.00025791
     188         -1.073364        1.000000        0.06738184        0.00234821        0.00037692
     189         -1.071841        1.000000        0.07876928        0.00261551        0.00041669
     190         -1.071436        1.000000        0.05731760        0.00214881        0.00041874
     191         -1.070358        1.000000        0.05866045        0.00180490        0.00027175
     192         -1.070160        1.000000        0.02996506        0.00110296        0.00022535
     193         -1.069551        1.000000        0.01045555        0.00045962        0.00010437
     194         -1.069042        1.000000        0.05924826        0.00235266        0.00028754
     195         -1.068018        1.000000        0.00620682        0.00036134        0.00009139
     196         -1.067683        1.000000        0.03333625        0.00132807        0.00020640
     197         -1.067094        1.000000        0.08226101        0.00320467        0.00048998
     198         -1.066200        1.000000        0.05859967        0.00232402        0.00028496
     199         -1.065105        1.000000        0.01294888        0.00050577        0.00015978
     200         -1.064600        1.000000        0.01362830        0.00045145        0.00006471
     201         -1.063825        1.000000        0.01956031        0.00110447        0.00022032
     202         -1.063672        1.000000        0.02690842        0.00090247        0.00011672
     203         -1.062915        1.000000        0.00979178        0.00042960        0.00007392
     204         -1.062259        1.000000        0.02077665        0.00114508        0.00028311
     205         -1.061986        1.000000        0.01583403        0.00057842        0.00007674
     206         -1.060822        1.000000        0.00907386        0.00034302        0.00007027
     207         -1.060230        1.000000        0.00406378        0.00016624        0.00002896
     208         -1.059971        1.000000        0.00750966        0.00025715        0.00005234
     209         -1.059399        1.000000        0.01658323        0.00087235        0.00024541
     210         -1.058798        1.000000        0.02435060        0.00096510        0.00014567
     211         -1.058498        1.000000        0.05332707        0.00220238        0.00037850
     212         -1.057049        1.000000        0.00496216        0.00025600        0.00007252
     213         -1.056896        1.000000        0.01746688        0.00095758        0.00020115
     214         -1.056403        1.000000        0.01145367        0.00055374        0.00006952
     215         -1.056079        1.000000        0.05566067        0.00242664        0.00036945
     216         -1.055624        1.000000        0.01292265        0.00049587        0.00013101
     217         -1.055288        1.000000        0.04998896        0.00256660        0.00052233
     218         -1.054828        1.000000        0.05283388        0.00207948        0.00041538
     219         -1.054413        1.000000        0.01161822        0.00051237        0.00017907
     220         -1.053990        1.000000        0.04180903        0.00135689        0.00032687
     221         -1.053598        1.000000        0.08054442        0.00289668        0.00047166
     222         -1.053387        1.000000        0.03371628        0.00106117        0.00019070
     223         -1.052953        1.000000        0.03532883        0.00103233        0.00019541
     224         -1.052779        1.000000        0.02512196        0.00074768        0.00017351
     225         -1.052376        1.000000        0.05653602        0.00201359        0.00019134
     226         -1.052297        1.000000        0.07438575        0.00243936        0.00035597
     227         -1.051819        1.000000        0.04566210        0.00155329        0.00019287
     228         -1.051536        1.000000        0.00618551        0.00022220        0.00007427
     229         -1.051232        1.000000        0.01432605        0.00062700        0.00015956
     230         -1.050581        1.000000        0.03042207        0.00173074        0.00045407
     231         -1.050140        1.000000        0.01374476        0.00057029        0.00011374
     232         -1.049834        1.000000        0.06497600        0.00225925        0.00026035
     233         -1.049588        1.000000        0.14210874        0.00491689        0.00039623
     234         -1.049506        1.000000        0.13835469        0.00481621        0.00071471
     235         -1.048565        1.000000        0.02693893        0.00088260        0.00023563
     236         -1.048103        1.000000        0.05477305        0.00170783        0.00044484
     237         -1.048023        1.000000        0.04538202        0.00144278        0.00023338
     238         -1.047651        1.000000        0.05822314        0.00152062        0.00017401
     239         -1.047305        1.000000        0.10784701        0.00300958        0.00049233
     240         -1.046707        1.000000        0.17190207        0.00392118        0.00051703
     241         -1.046592        1.000000        0.10651174        0.00303120        0.00027807
     242         -1.046281        1.000000        0.21090432        0.00593745        0.00050930
     243         -1.045974        1.000000        0.00397878        0.00013342        0.00002226
     244         -1.045866        1.000000        0.03893246        0.00146540        0.00027492
     245         -1.045771        1.000000        0.06003542        0.00242435        0.00049471
     246         -1.045301        1.000000        0.02256445        0.00067614        0.00009145
     247         -1.045020        1.000000        0.02329340        0.00091574        0.00017723
     248         -1.043956        1.000000        0.03183829        0.00105021        0.00024781
     249         -1.043818        1.000000        0.03551108        0.00131850        0.00022651
     250         -1.043244        1.000000        0.02597576        0.00092351        0.00022069
     251         -1.043119        1.000000        0.10739098        0.00402230        0.00067015
     252         -1.042993        1.000000        0.05217770        0.00218566        0.00055027
     253         -1.042515        1.000000        0.00603446        0.00031881        0.00008857
     254         -1.041302        1.000000        0.08417472        0.00254659        0.00078968
     255         -1.041116        1.000000        0.00727166        0.00081450        0.00037037
     256         -1.040594        1.000000        0.00249013        0.00028247        0.00022679
     257         -1.040094        1.000000        0.00562774        0.00046116        0.00016095
     258         -1.039599        1.000000        0.00234895        0.00018281        0.00008114
     259         -1.039408        1.000000        0.00460100        0.00026147        0.00013850
     260         -1.038970        1.000000        0.00638011        0.00059985        0.00031556
     261         -1.038561        1.000000        0.01660678        0.00115785        0.00037622
     262         -1.038022        1.000000        0.29038348        0.00678906        0.00072290
     263         -1.037841        1.000000        0.00091381        0.00002392        0.00000375
     264         -1.036991        1.000000        0.07476845        0.00168913        0.00034358
     265         -1.036854        1.000000        0.02254487        0.00055379        0.00013673
     266         -1.035910        1.000000        0.02845286        0.00180294        0.00076141
     267         -1.035115        1.000000        0.00296731        0.00013796        0.00006006
     268         -1.034275        1.000000        0.00380638        0.00032968        0.00015209
     269         -1.033697        1.000000        0.00800139        0.00058483        0.00021285
     270         -1.033444        1.000000        0.01542700        0.00057875        0.00012080
     271         -1.033385        1.000000        0.01397793        0.00056967        0.00012111
     272         -1.033262        1.000000        0.01754016        0.00078087        0.00032059
     273         -1.032346        1.000000        0.00048966        0.00002163        0.00000424
     274         -1.031626        1.000000        0.04026511        0.00256581        0.00053894
     275         -1.030746        1.000000        0.01112990        0.00124644        0.00061406
     276         -1.029780        1.000000        0.01233440        0.00162400        0.00043904
     277         -1.028980        1.000000        0.01311111        0.00171925        0.00053692
     278         -1.027492        1.000000        0.00001141        0.00000131        0.00000073
     279         -1.025795        1.000000        0.00000404        0.00000077        0.00000061
     280         -1.023990        1.000000        0.00002727        0.00000168        0.00000164
     281         -1.022755        1.000000        0.01156563        0.00049346        0.00041946
     282         -1.019871        1.000000        0.00416284        0.00044454        0.00057768
     283         -1.017737        1.000000        0.00000384        0.00000012        0.00000009
     284         -1.012409        1.000000        0.00006265        0.00001223        0.00000536
     285         -1.010522        1.000000        0.44895534        0.01006650        0.00145995
     286         -0.880961        1.000000        0.00000000        0.00000000        0.00000000
     287         -0.861761        1.000000        0.00000000        0.00000000        0.00000000
     288         -0.860652        1.000000        0.00000000        0.00000000        0.00000000
     289         -0.854811        1.000000        0.00000000        0.00000000        0.00000000
     290         -0.853189        1.000000        0.00000000        0.00000000        0.00000000
     291         -0.838407        1.000000        0.00000000        0.00000000        0.00000000
     292         -0.837131        1.000000        0.00000000        0.00000000        0.00000000
     293         -0.835422        1.000000        0.00000000        0.00000000        0.00000000
     294         -0.832873        1.000000        0.00000000        0.00000000        0.00000000
     295         -0.813092        1.000000        0.00000000        0.00000000        0.00000000
     296         -0.811309        1.000000        0.00000000        0.00000000        0.00000000
     297         -0.805633        1.000000        0.00000000        0.00000000        0.00000000
     298         -0.800994        1.000000        0.00000000        0.00000000        0.00000000
     299         -0.798544        1.000000        0.00000000        0.00000000        0.00000000
     300         -0.797176        1.000000        0.00000000        0.00000000        0.00000000
     301         -0.796065        1.000000        0.00000000        0.00000000        0.00000000
     302         -0.795247        1.000000        0.00000000        0.00000000        0.00000000
     303         -0.794465        1.000000        0.00000000        0.00000000        0.00000000
     304         -0.792558        1.000000        0.00000000        0.00000000        0.00000000
     305         -0.791532        1.000000        0.00000000        0.00000000        0.00000000
     306         -0.790931        1.000000        0.00000000        0.00000000        0.00000000
     307         -0.790366        1.000000        0.00000000        0.00000000        0.00000000