# Projected DOS for atomic kind S at iteration step i = 0, E(Fermi) =    -0.237583 a.u.
#     MO Eigenvalue [a.u.]      Occupation                 s                 p                 d
       1         -3.115895        1.000000        0.01588430        0.03460295        0.00287782
       2         -3.112717        1.000000        0.02091257        0.04285134        0.00370467
       3         -3.112103        1.000000        0.02950119        0.04805798        0.00328895
       4         -3.111180        1.000000        0.01168686        0.03951793        0.00468370
       5         -3.110810        1.000000        0.01829072        0.04130688        0.00394489
       6         -3.110575        1.000000        0.01700746        0.04140983        0.00397992
       7         -3.110067        1.000000        0.01923024        0.04375107        0.00410022
       8         -3.109817        1.000000        0.02193639        0.04765050        0.00433076
       9         -3.109660        1.000000        0.02724894        0.04657001        0.00360678
      10         -3.108831        1.000000        0.03491790        0.04606327        0.00289644
      11         -3.108678        1.000000        0.02621776        0.04794867        0.00365817
      12         -3.108578        1.000000        0.02064337        0.04920708        0.00425800
      13         -3.108350        1.000000        0.02542269        0.04954528        0.00402763
      14         -3.108163        1.000000        0.02399281        0.05047931        0.00430557
      15         -3.107948        1.000000        0.01838010        0.04615424        0.00444346
      16         -3.107865        1.000000        0.01159682        0.04187380        0.00490745
      17         -3.107703        1.000000        0.01162131        0.04437490        0.00530209
      18         -3.107683        1.000000        0.00885002        0.03738667        0.00501756
      19         -3.107641        1.000000        0.00903946        0.04029986        0.00512533
      20         -3.107604        1.000000        0.00988714        0.03757920        0.00504962
      21         -3.107402        1.000000        0.00972883        0.03992387        0.00498838
      22         -3.107115        1.000000        0.00845664        0.03857921        0.00520658
      23         -3.107013        1.000000        0.01442461        0.04292506        0.00478258
      24         -3.106750        1.000000        0.00934410        0.04014166        0.00552499
      25         -3.106619        1.000000        0.00695620        0.04218851        0.00595715
      26         -3.106567        1.000000        0.00639500        0.03712234        0.00546524
      27         -3.106546        1.000000        0.00714962        0.03571509        0.00514804
      28         -3.106258        1.000000        0.00737932        0.03982161        0.00570157
      29         -3.106103        1.000000        0.00874230        0.04015047        0.00543247
      30         -3.104674        1.000000        0.00958981        0.04019212        0.00539670
      31         -1.775522        1.000000        0.00902105        0.02484133        0.00216563
      32         -1.773964        1.000000        0.00784613        0.02291869        0.00264706
      33         -1.773454        1.000000        0.00727170        0.02142255        0.00257202
      34         -1.773008        1.000000        0.00741562        0.02212338        0.00277903
      35         -1.772581        1.000000        0.00800980        0.02310368        0.00279215
      36         -1.772213        1.000000        0.00765303        0.02234345        0.00261505
      37         -1.771852        1.000000        0.00768344        0.02219658        0.00281476
      38         -1.771444        1.000000        0.00798914        0.02253264        0.00294073
      39         -1.771233        1.000000        0.00763032        0.02172362        0.00283502
      40         -1.770977        1.000000        0.00808065        0.02232686        0.00281207
      41         -1.770760        1.000000        0.00742823        0.02147146        0.00286513
      42         -1.770111        1.000000        0.00673442        0.02072608        0.00327322
      43         -1.770034        1.000000        0.00698272        0.01961765        0.00273497
      44         -1.769495        1.000000        0.00666402        0.02044839        0.00313263
      45         -1.769421        1.000000        0.00676352        0.01934721        0.00287575
      46         -1.769063        1.000000        0.00584161        0.01855636        0.00304613
      47         -1.768532        1.000000        0.00623466        0.01931340        0.00293119
      48         -1.768412        1.000000        0.00612552        0.01928400        0.00300930
      49         -1.767811        1.000000        0.00624543        0.01945926        0.00304337
      50         -1.767614        1.000000        0.00575915        0.01862180        0.00324844
      51         -1.767477        1.000000        0.00591681        0.01889074        0.00309658
      52         -1.765531        1.000000        0.00362583        0.01434232        0.00422223
      53         -1.765088        1.000000        0.00970169        0.01947270        0.00212893
      54         -1.764557        1.000000        0.00480449        0.01506192        0.00350208
      55         -1.763772        1.000000        0.00758777        0.01913724        0.00294323
      56         -1.763328        1.000000        0.00895918        0.02001053        0.00269128
      57         -1.762925        1.000000        0.00929578        0.02006386        0.00276276
      58         -1.762506        1.000000        0.00727498        0.01957923        0.00366871
      59         -1.762119        1.000000        0.00660324        0.02024642        0.00436543
      60         -1.762053        1.000000        0.00456317        0.01673772        0.00429647
      61         -1.761895        1.000000        0.00655398        0.01927441        0.00415260
      62         -1.761602        1.000000        0.00500620        0.01691324        0.00414248
      63         -1.761509        1.000000        0.00484925        0.01842840        0.00461906
      64         -1.761377        1.000000        0.00483404        0.01831896        0.00484799
      65         -1.761171        1.000000        0.00466366        0.01930771        0.00534204
      66         -1.760998        1.000000        0.00432819        0.01775956        0.00490339
      67         -1.760877        1.000000        0.00329602        0.01660267        0.00516399
      68         -1.760806        1.000000        0.00413085        0.01785630        0.00499094
      69         -1.760684        1.000000        0.00306579        0.01527942        0.00505410
      70         -1.760645        1.000000        0.00483872        0.01978436        0.00532366
      71         -1.760442        1.000000        0.00367543        0.01886320        0.00580027
      72         -1.760098        1.000000        0.00350394        0.01897124        0.00605437
      73         -1.759962        1.000000        0.00206247        0.01570984        0.00579868
      74         -1.759824        1.000000        0.00347976        0.01975390        0.00613771
      75         -1.759787        1.000000        0.00323004        0.01834396        0.00599986
      76         -1.759638        1.000000        0.00315254        0.02155855        0.00725185
      77         -1.759601        1.000000        0.00281530        0.01802521        0.00607363
      78         -1.759512        1.000000        0.00307212        0.02130005        0.00698740
      79         -1.759406        1.000000        0.00259124        0.01720220        0.00587747
      80         -1.759287        1.000000        0.00243687        0.01911245        0.00683924
      81         -1.759176        1.000000        0.00265441        0.02017999        0.00688897
      82         -1.758872        1.000000        0.00199394        0.01321021        0.00499496
      83         -1.758781        1.000000        0.00245908        0.01889641        0.00681653
      84         -1.758726        1.000000        0.00236449        0.01698420        0.00598736
      85         -1.758559        1.000000        0.00243393        0.02066599        0.00753849
      86         -1.758378        1.000000        0.00261667        0.02146852        0.00725311
      87         -1.758294        1.000000        0.00255741        0.02066333        0.00731688
      88         -1.758087        1.000000        0.00217538        0.02018043        0.00741904
      89         -1.757987        1.000000        0.00192538        0.02040762        0.00764985
      90         -1.757734        1.000000        0.00192430        0.01389610        0.00539829
      91         -1.757649        1.000000        0.00207143        0.01381709        0.00539772
      92         -1.757529        1.000000        0.00158076        0.01806012        0.00691349
      93         -1.757404        1.000000        0.00119033        0.02046811        0.00769389
      94         -1.757324        1.000000        0.00154044        0.01255727        0.00531965
      95         -1.757187        1.000000        0.00237750        0.01814684        0.00672834
      96         -1.757137        1.000000        0.00131648        0.01473265        0.00581910
      97         -1.756770        1.000000        0.00115248        0.01766809        0.00678046
      98         -1.756598        1.000000        0.00130239        0.01670097        0.00667296
      99         -1.756513        1.000000        0.00168263        0.01374934        0.00545948
     100         -1.756186        1.000000        0.00099005        0.01344959        0.00555416
     101         -1.755847        1.000000        0.00106459        0.01209282        0.00513184
     102         -1.755716        1.000000        0.00144652        0.01168773        0.00507646
     103         -1.755306        1.000000        0.00161255        0.01017498        0.00445042
     104         -1.755052        1.000000        0.00132370        0.01140616        0.00493288
     105         -1.754765        1.000000        0.00167384        0.00996966        0.00463272
     106         -1.754094        1.000000        0.00193071        0.01045536        0.00458294
     107         -1.753681        1.000000        0.00049428        0.00819641        0.00483437
     108         -1.753548        1.000000        0.00133087        0.00920137        0.00447446
     109         -1.753256        1.000000        0.00053517        0.00851036        0.00494226
     110         -1.752675        1.000000        0.00094957        0.00916362        0.00480965
     111         -1.752502        1.000000        0.00066062        0.00898063        0.00485963
     112         -1.752253        1.000000        0.00030664        0.00645129        0.00473099
     113         -1.751643        1.000000        0.00068024        0.00879046        0.00473600
     114         -1.751317        1.000000        0.00109761        0.00923159        0.00471803
     115         -1.749193        1.000000        0.00020287        0.01085414        0.00475470
     116         -1.748137        1.000000        0.00009587        0.00955284        0.00477572
     117         -1.747283        1.000000        0.00014057        0.00946672        0.00483303
     118         -1.745962        1.000000        0.00009006        0.00586010        0.00448257
     119         -1.745880        1.000000        0.00008753        0.00561986        0.00427329
     120         -1.744143        1.000000        0.00010623        0.00515305        0.00462884
     121         -1.145318        1.000000        0.00000202        0.00000269        0.00000013
     122         -1.141162        1.000000        0.00000124        0.00000189        0.00000010
     123         -1.135518        1.000000        0.00001264        0.00001692        0.00000094
     124         -1.134356        1.000000        0.00000764        0.00000991        0.00000055
     125         -1.132797        1.000000        0.00000081        0.00000128        0.00000008
     126         -1.131675        1.000000        0.00000069        0.00000117        0.00000007
     127         -1.130657        1.000000        0.00000085        0.00000143        0.00000010
     128         -1.129329        1.000000        0.00000470        0.00000668        0.00000049
     129         -1.127805        1.000000        0.00000287        0.00000597        0.00000044
     130         -1.126970        1.000000        0.00001108        0.00001670        0.00000104
     131         -1.125100        1.000000        0.00000302        0.00000491        0.00000033
     132         -1.124640        1.000000        0.00000421        0.00000642        0.00000051
     133         -1.122028        1.000000        0.00000196        0.00000458        0.00000034
     134         -1.120887        1.000000        0.00000114        0.00000339        0.00000027
     135         -1.119308        1.000000        0.00000459        0.00000845        0.00000050
     136         -1.118408        1.000000        0.00000100        0.00000337        0.00000030
     137         -1.117769        1.000000        0.00000062        0.00000189        0.00000016
     138         -1.116570        1.000000        0.00000314        0.00001089        0.00000090
     139         -1.115096        1.000000        0.00000145        0.00000341        0.00000030
     140         -1.114402        1.000000        0.00000092        0.00000199        0.00000014
     141         -1.114039        1.000000        0.00000330        0.00000858        0.00000073
     142         -1.112381        1.000000        0.00000059        0.00000244        0.00000019
     143         -1.111588        1.000000        0.00000108        0.00000517        0.00000048
     144         -1.111356        1.000000        0.00000291        0.00000824        0.00000066
     145         -1.110913        1.000000        0.00000172        0.00000618        0.00000052
     146         -1.109631        1.000000        0.00000242        0.00000755        0.00000065
     147         -1.107338        1.000000        0.00000059        0.00000262        0.00000019
     148         -1.107163        1.000000        0.00000049        0.00000283        0.00000027
     149         -1.106911        1.000000        0.00000305        0.00001147        0.00000123
     150         -1.105904        1.000000        0.00000367        0.00000886        0.00000086
     151         -1.104513        1.000000        0.00000911        0.00005209        0.00000600
     152         -1.103753        1.000000        0.00001965        0.00012412        0.00001420
     153         -1.103233        1.000000        0.00000102        0.00000541        0.00000046
     154         -1.101116        1.000000        0.00000744        0.00001964        0.00000169
     155         -1.099878        1.000000        0.00001081        0.00003095        0.00000348
     156         -1.099527        1.000000        0.00000798        0.00003448        0.00000363
     157         -1.099360        1.000000        0.00002663        0.00007000        0.00000691
     158         -1.097449        1.000000        0.00001281        0.00003388        0.00000372
     159         -1.097246        1.000000        0.00000644        0.00002136        0.00000201
     160         -1.096336        1.000000        0.00007371        0.00019889        0.00002202
     161         -1.095776        1.000000        0.00011753        0.00033659        0.00003637
     162         -1.094258        1.000000        0.00001894        0.00006430        0.00000689
     163         -1.093701        1.000000        0.00000908        0.00002935        0.00000313
     164         -1.093107        1.000000        0.00001136        0.00004000        0.00000369
     165         -1.091600        1.000000        0.00000333        0.00001071        0.00000123
     166         -1.090890        1.000000        0.00000399        0.00001319        0.00000140
     167         -1.090283        1.000000        0.00000238        0.00000842        0.00000087
     168         -1.089378        1.000000        0.00000224        0.00000670        0.00000055
     169         -1.088506        1.000000        0.00000164        0.00000716        0.00000059
     170         -1.086931        1.000000        0.00000163        0.00000643        0.00000078
     171         -1.086367        1.000000        0.00000347        0.00000943        0.00000098
     172         -1.085327        1.000000        0.00000355        0.00001625        0.00000144
     173         -1.084766        1.000000        0.00000108        0.00000324        0.00000025
     174         -1.083961        1.000000        0.00000019        0.00000111        0.00000008
     175         -1.082920        1.000000        0.00000202        0.00000739        0.00000062
     176         -1.081700        1.000000        0.00000332        0.00001340        0.00000098
     177         -1.081031        1.000000        0.00000232        0.00000630        0.00000045
     178         -1.080558        1.000000        0.00000158        0.00000724        0.00000068
     179         -1.080415        1.000000        0.00000181        0.00000900        0.00000077
     180         -1.080047        1.000000        0.00000185        0.00000765        0.00000085
     181         -1.077309        1.000000        0.00002188        0.00006189        0.00000568
     182         -1.076601        1.000000        0.00000145        0.00000681        0.00000070
     183         -1.076342        1.000000        0.00000287        0.00001130        0.00000112
     184         -1.076154        1.000000        0.00000572        0.00001974        0.00000195
     185         -1.075469        1.000000        0.00000201        0.00001050        0.00000095
     186         -1.074904        1.000000        0.00000053        0.00000287        0.00000020
     187         -1.074160        1.000000        0.00000116        0.00000436        0.00000055
     188         -1.073364        1.000000        0.00000071        0.00000482        0.00000035
     189         -1.071841        1.000000        0.00003121        0.00007967        0.00000811
     190         -1.071436        1.000000        0.00000442        0.00001222        0.00000126
     191         -1.070358        1.000000        0.00003666        0.00008691        0.00000893
     192         -1.070160        1.000000        0.00007662        0.00018846        0.00001923
     193         -1.069551        1.000000        0.00002491        0.00006610        0.00000677
     194         -1.069042        1.000000        0.00000271        0.00001833        0.00000170
     195         -1.068018        1.000000        0.00001053        0.00003230        0.00000364
     196         -1.067683        1.000000        0.00000960        0.00006094        0.00000697
     197         -1.067094        1.000000        0.00000398        0.00002154        0.00000217
     198         -1.066200        1.000000        0.00000695        0.00002371        0.00000251
     199         -1.065105        1.000000        0.00000467        0.00003288        0.00000304
     200         -1.064600        1.000000        0.00001027        0.00003794        0.00000357
     201         -1.063825        1.000000        0.00000710        0.00004724        0.00000488
     202         -1.063672        1.000000        0.00002145        0.00006380        0.00000706
     203         -1.062915        1.000000        0.00000627        0.00002420        0.00000238
     204         -1.062259        1.000000        0.00000123        0.00000553        0.00000051
     205         -1.061986        1.000000        0.00000353        0.00002409        0.00000260
     206         -1.060822        1.000000        0.00000123        0.00000523        0.00000060
     207         -1.060230        1.000000        0.00000665        0.00002894        0.00000247
     208         -1.059971        1.000000        0.00000291        0.00001488        0.00000112
     209         -1.059399        1.000000        0.00000369        0.00001330        0.00000125
     210         -1.058798        1.000000        0.00000055        0.00000303        0.00000038
     211         -1.058498        1.000000        0.00000229        0.00001044        0.00000121
     212         -1.057049        1.000000        0.00000166        0.00001187        0.00000106
     213         -1.056896        1.000000        0.00000229        0.00001682        0.00000116
     214         -1.056403        1.000000        0.00000284        0.00002336        0.00000229
     215         -1.056079        1.000000        0.00000025        0.00000186        0.00000015
     216         -1.055624        1.000000        0.00000226        0.00001112        0.00000127
     217         -1.055288        1.000000        0.00000071        0.00000551        0.00000052
     218         -1.054828        1.000000        0.00000155        0.00001248        0.00000120
     219         -1.054413        1.000000        0.00000222        0.00001664        0.00000162
     220         -1.053990        1.000000        0.00000137        0.00000735        0.00000076
     221         -1.053598        1.000000        0.00000050        0.00000248        0.00000027
     222         -1.053387        1.000000        0.00000280        0.00001303        0.00000146
     223         -1.052953        1.000000        0.00000017        0.00000101        0.00000011
     224         -1.052779        1.000000        0.00000072        0.00000418        0.00000039
     225         -1.052376        1.000000        0.00000098        0.00000564        0.00000046
     226         -1.052297        1.000000        0.00000047        0.00000342        0.00000023
     227         -1.051819        1.000000        0.00000051        0.00000314        0.00000027
     228         -1.051536        1.000000        0.00000387        0.00001869        0.00000211
     229         -1.051232        1.000000        0.00000047        0.00000293        0.00000027
     230         -1.050581        1.000000        0.00000024        0.00000139        0.00000013
     231         -1.050140        1.000000        0.00000120        0.00000777        0.00000052
     232         -1.049834        1.000000        0.00000018        0.00000105        0.00000011
     233         -1.049588        1.000000        0.00000005        0.00000028        0.00000003
     234         -1.049506        1.000000        0.00000007        0.00000040        0.00000004
     235         -1.048565        1.000000        0.00000104        0.00000517        0.00000042
     236         -1.048103        1.000000        0.00000119        0.00000728        0.00000063
     237         -1.048023        1.000000        0.00000147        0.00000858        0.00000082
     238         -1.047651        1.000000        0.00000080        0.00000332        0.00000033
     239         -1.047305        1.000000        0.00000099        0.00000565        0.00000060
     240         -1.046707        1.000000        0.00000096        0.00000677        0.00000057
     241         -1.046592        1.000000        0.00000104        0.00000773        0.00000058
     242         -1.046281        1.000000        0.00000022        0.00000162        0.00000011
     243         -1.045974        1.000000        0.00000174        0.00001377        0.00000132
     244         -1.045866        1.000000        0.00000021        0.00000138        0.00000014
     245         -1.045771        1.000000        0.00000060        0.00000306        0.00000025
     246         -1.045301        1.000000        0.00000109        0.00000554        0.00000038
     247         -1.045020        1.000000        0.00000081        0.00000383        0.00000055
     248         -1.043956        1.000000        0.00000464        0.00002755        0.00000268
     249         -1.043818        1.000000        0.00000117        0.00000857        0.00000092
     250         -1.043244        1.000000        0.00000129        0.00000801        0.00000073
     251         -1.043119        1.000000        0.00000012        0.00000097        0.00000011
     252         -1.042993        1.000000        0.00000105        0.00000740        0.00000086
     253         -1.042515        1.000000        0.00000591        0.00004610        0.00000578
     254         -1.041302        1.000000        0.00000025        0.00000193        0.00000018
     255         -1.041116        1.000000        0.00000087        0.00000653        0.00000059
     256         -1.040594        1.000000        0.00000016        0.00000119        0.00000013
     257         -1.040094        1.000000        0.00000084        0.00000620        0.00000065
     258         -1.039599        1.000000        0.00000026        0.00000197        0.00000017
     259         -1.039408        1.000000        0.00000052        0.00000391        0.00000034
     260         -1.038970        1.000000        0.00000022        0.00000166        0.00000015
     261         -1.038561        1.000000        0.00000007        0.00000046        0.00000005
     262         -1.038022        1.000000        0.00000001        0.00000007        0.00000001
     263         -1.037841        1.000000        0.00000041        0.00000412        0.00000052
     264         -1.036991        1.000000        0.00000009        0.00000059        0.00000005
     265         -1.036854        1.000000        0.00000073        0.00000468        0.00000046
     266         -1.035910        1.000000        0.00000001        0.00000008        0.00000001
     267         -1.035115        1.000000        0.00000031        0.00000196        0.00000017
     268         -1.034275        1.000000        0.00000011        0.00000064        0.00000006
     269         -1.033697        1.000000        0.00000006        0.00000036        0.00000003
     270         -1.033444        1.000000        0.00000459        0.00002834        0.00000312
     271         -1.033385        1.000000        0.00000374        0.00002297        0.00000241
     272         -1.033262        1.000000        0.00000018        0.00000105        0.00000009
     273         -1.032346        1.000000        0.00000852        0.00005300        0.00000605
     274         -1.031626        1.000000        0.00000002        0.00000017        0.00000002
     275         -1.030746        1.000000        0.00000000        0.00000000        0.00000000
     276         -1.029780        1.000000        0.00000000        0.00000002        0.00000000
     277         -1.028980        1.000000        0.00000000        0.00000001        0.00000000
     278         -1.027492        1.000000        0.00000034        0.00000168        0.00000014
     279         -1.025795        1.000000        0.00000073        0.00000316        0.00000020
     280         -1.023990        1.000000        0.00000016        0.00000087        0.00000009
     281         -1.022755        1.000000        0.00000000        0.00000001        0.00000000
     282         -1.019871        1.000000        0.00000000        0.00000000        0.00000000
     283         -1.017737        1.000000        0.00000878        0.00003111        0.00000156
     284         -1.012409        1.000000        0.00000000        0.00000002        0.00000000
     285         -1.010522        1.000000        0.00000000        0.00000000        0.00000000
     286         -0.880961        1.000000        0.40653804        0.01977837        0.00039794
     287         -0.861761        1.000000        0.42457382        0.04293651        0.00152610
     288         -0.860652        1.000000        0.42786711        0.04167259        0.00163739
     289         -0.854811        1.000000        0.42364073        0.05333128        0.00118269
     290         -0.853189        1.000000        0.42397239        0.05578016        0.00124511
     291         -0.838407        1.000000        0.43331822        0.06036781        0.00200583
     292         -0.837131        1.000000        0.43268428        0.05948845        0.00201209
     293         -0.835422        1.000000        0.43360980        0.06044707        0.00206081
     294         -0.832873        1.000000        0.43682515        0.06037243        0.00209234
     295         -0.813092        1.000000        0.47344764        0.03938087        0.00473309
     296         -0.811309        1.000000        0.47481504        0.03963628        0.00477284
     297         -0.805633        1.000000        0.57999852        0.01583365        0.00579809
     298         -0.800994        1.000000        0.48185258        0.02754337        0.00366028
     299         -0.798544        1.000000        0.48088983        0.02635539        0.00360604
     300         -0.797176        1.000000        0.45847391        0.04326141        0.00337026
     301         -0.796065        1.000000        0.45545376        0.04498057        0.00361089
     302         -0.795247        1.000000        0.46119689        0.03763520        0.00293763
     303         -0.794465        1.000000        0.45693936        0.04155725        0.00319854
     304         -0.792558        1.000000        0.46068064        0.03782807        0.00293651
     305         -0.791532        1.000000        0.46637473        0.03662557        0.00308762
     306         -0.790931        1.000000        0.46121839        0.04203261        0.00334120
     307         -0.790366        1.000000        0.47908058        0.03647685        0.00314434