# Projected DOS for list 1 of 1 atoms, at iteration step i = 0, E(Fermi) =    -0.237583 a.u.
#     MO Eigenvalue [a.u.]      Occupation                 s                 p                 d
       1         -3.115895        1.000000        0.00000000        0.00000000        0.00000000
       2         -3.112717        1.000000        0.00000000        0.00000000        0.00000000
       3         -3.112103        1.000000        0.00000013        0.00000018        0.00000000
       4         -3.111180        1.000000        0.00000000        0.00000000        0.00000000
       5         -3.110810        1.000000        0.00000000        0.00000000        0.00000000
       6         -3.110575        1.000000        0.00000000        0.00000000        0.00000000
       7         -3.110067        1.000000        0.00000000        0.00000000        0.00000000
       8         -3.109817        1.000000        0.00000000        0.00000000        0.00000000
       9         -3.109660        1.000000        0.00000001        0.00000001        0.00000000
      10         -3.108831        1.000000        0.00000019        0.00000026        0.00000000
      11         -3.108678        1.000000        0.00000001        0.00000002        0.00000000
      12         -3.108578        1.000000        0.00000001        0.00000004        0.00000000
      13         -3.108350        1.000000        0.00000000        0.00000001        0.00000000
      14         -3.108163        1.000000        0.00000000        0.00000000        0.00000000
      15         -3.107948        1.000000        0.00000000        0.00000000        0.00000000
      16         -3.107865        1.000000        0.00000000        0.00000000        0.00000000
      17         -3.107703        1.000000        0.00000000        0.00000000        0.00000000
      18         -3.107683        1.000000        0.00000000        0.00000000        0.00000000
      19         -3.107641        1.000000        0.00000000        0.00000000        0.00000000
      20         -3.107604        1.000000        0.00000000        0.00000000        0.00000000
      21         -3.107402        1.000000        0.00000000        0.00000000        0.00000000
      22         -3.107115        1.000000        0.00000001        0.00000001        0.00000000
      23         -3.107013        1.000000        0.00000000        0.00000000        0.00000000
      24         -3.106750        1.000000        0.00000000        0.00000000        0.00000000
      25         -3.106619        1.000000        0.00000000        0.00000000        0.00000000
      26         -3.106567        1.000000        0.00000000        0.00000000        0.00000000
      27         -3.106546        1.000000        0.00000000        0.00000001        0.00000000
      28         -3.106258        1.000000        0.00000000        0.00000000        0.00000000
      29         -3.106103        1.000000        0.00000000        0.00000001        0.00000000
      30         -3.104674        1.000000        0.00000001        0.00000003        0.00000000
      31         -1.775522        1.000000        0.00000000        0.00000000        0.00000000
      32         -1.773964        1.000000        0.00000000        0.00000000        0.00000000
      33         -1.773454        1.000000        0.00000000        0.00000000        0.00000000
      34         -1.773008        1.000000        0.00000000        0.00000000        0.00000000
      35         -1.772581        1.000000        0.00000000        0.00000000        0.00000000
      36         -1.772213        1.000000        0.00000000        0.00000000        0.00000000
      37         -1.771852        1.000000        0.00000000        0.00000000        0.00000000
      38         -1.771444        1.000000        0.00000000        0.00000000        0.00000000
      39         -1.771233        1.000000        0.00000000        0.00000000        0.00000000
      40         -1.770977        1.000000        0.00000000        0.00000000        0.00000000
      41         -1.770760        1.000000        0.00000000        0.00000000        0.00000000
      42         -1.770111        1.000000        0.00000000        0.00000000        0.00000000
      43         -1.770034        1.000000        0.00000000        0.00000000        0.00000000
      44         -1.769495        1.000000        0.00000000        0.00000000        0.00000000
      45         -1.769421        1.000000        0.00000000        0.00000000        0.00000000
      46         -1.769063        1.000000        0.00000000        0.00000000        0.00000000
      47         -1.768532        1.000000        0.00000000        0.00000000        0.00000000
      48         -1.768412        1.000000        0.00000000        0.00000000        0.00000000
      49         -1.767811        1.000000        0.00000000        0.00000000        0.00000000
      50         -1.767614        1.000000        0.00000000        0.00000000        0.00000000
      51         -1.767477        1.000000        0.00000000        0.00000000        0.00000000
      52         -1.765531        1.000000        0.00000000        0.00000000        0.00000000
      53         -1.765088        1.000000        0.00000000        0.00000000        0.00000000
      54         -1.764557        1.000000        0.00000000        0.00000000        0.00000000
      55         -1.763772        1.000000        0.00000000        0.00000000        0.00000000
      56         -1.763328        1.000000        0.00000000        0.00000000        0.00000000
      57         -1.762925        1.000000        0.00000000        0.00000000        0.00000000
      58         -1.762506        1.000000        0.00000000        0.00000000        0.00000000
      59         -1.762119        1.000000        0.00000000        0.00000000        0.00000000
      60         -1.762053        1.000000        0.00000000        0.00000000        0.00000000
      61         -1.761895        1.000000        0.00000000        0.00000000        0.00000000
      62         -1.761602        1.000000        0.00000000        0.00000000        0.00000000
      63         -1.761509        1.000000        0.00000000        0.00000000        0.00000000
      64         -1.761377        1.000000        0.00000000        0.00000000        0.00000000
      65         -1.761171        1.000000        0.00000000        0.00000000        0.00000000
      66         -1.760998        1.000000        0.00000000        0.00000000        0.00000000
      67         -1.760877        1.000000        0.00000000        0.00000000        0.00000000
      68         -1.760806        1.000000        0.00000000        0.00000000        0.00000000
      69         -1.760684        1.000000        0.00000000        0.00000000        0.00000000
      70         -1.760645        1.000000        0.00000000        0.00000000        0.00000000
      71         -1.760442        1.000000        0.00000000        0.00000000        0.00000000
      72         -1.760098        1.000000        0.00000000        0.00000000        0.00000000
      73         -1.759962        1.000000        0.00000000        0.00000000        0.00000000
      74         -1.759824        1.000000        0.00000000        0.00000000        0.00000000
      75         -1.759787        1.000000        0.00000000        0.00000000        0.00000000
      76         -1.759638        1.000000        0.00000000        0.00000000        0.00000000
      77         -1.759601        1.000000        0.00000000        0.00000000        0.00000000
      78         -1.759512        1.000000        0.00000000        0.00000000        0.00000000
      79         -1.759406        1.000000        0.00000000        0.00000000        0.00000000
      80         -1.759287        1.000000        0.00000000        0.00000000        0.00000000
      81         -1.759176        1.000000        0.00000000        0.00000000        0.00000000
      82         -1.758872        1.000000        0.00000000        0.00000000        0.00000000
      83         -1.758781        1.000000        0.00000000        0.00000000        0.00000000
      84         -1.758726        1.000000        0.00000000        0.00000000        0.00000000
      85         -1.758559        1.000000        0.00000000        0.00000000        0.00000000
      86         -1.758378        1.000000        0.00000000        0.00000000        0.00000000
      87         -1.758294        1.000000        0.00000000        0.00000000        0.00000000
      88         -1.758087        1.000000        0.00000000        0.00000000        0.00000000
      89         -1.757987        1.000000        0.00000000        0.00000000        0.00000000
      90         -1.757734        1.000000        0.00000000        0.00000000        0.00000000
      91         -1.757649        1.000000        0.00000000        0.00000000        0.00000000
      92         -1.757529        1.000000        0.00000000        0.00000000        0.00000000
      93         -1.757404        1.000000        0.00000000        0.00000000        0.00000000
      94         -1.757324        1.000000        0.00000000        0.00000000        0.00000000
      95         -1.757187        1.000000        0.00000000        0.00000000        0.00000000
      96         -1.757137        1.000000        0.00000000        0.00000000        0.00000000
      97         -1.756770        1.000000        0.00000000        0.00000000        0.00000000
      98         -1.756598        1.000000        0.00000000        0.00000000        0.00000000
      99         -1.756513        1.000000        0.00000000        0.00000000        0.00000000
     100         -1.756186        1.000000        0.00000000        0.00000000        0.00000000
     101         -1.755847        1.000000        0.00000000        0.00000000        0.00000000
     102         -1.755716        1.000000        0.00000000        0.00000000        0.00000000
     103         -1.755306        1.000000        0.00000000        0.00000000        0.00000000
     104         -1.755052        1.000000        0.00000000        0.00000000        0.00000000
     105         -1.754765        1.000000        0.00000000        0.00000000        0.00000000
     106         -1.754094        1.000000        0.00000000        0.00000000        0.00000000
     107         -1.753681        1.000000        0.00000000        0.00000000        0.00000000
     108         -1.753548        1.000000        0.00000000        0.00000000        0.00000000
     109         -1.753256        1.000000        0.00000000        0.00000000        0.00000000
     110         -1.752675        1.000000        0.00000000        0.00000000        0.00000000
     111         -1.752502        1.000000        0.00000000        0.00000000        0.00000000
     112         -1.752253        1.000000        0.00000000        0.00000000        0.00000000
     113         -1.751643        1.000000        0.00000000        0.00000000        0.00000000
     114         -1.751317        1.000000        0.00000000        0.00000000        0.00000000
     115         -1.749193        1.000000        0.00000000        0.00000000        0.00000000
     116         -1.748137        1.000000        0.00000000        0.00000000        0.00000000
     117         -1.747283        1.000000        0.00000000        0.00000000        0.00000000
     118         -1.745962        1.000000        0.00000000        0.00000000        0.00000000
     119         -1.745880        1.000000        0.00000000        0.00000000        0.00000000
     120         -1.744143        1.000000        0.00000000        0.00000000        0.00000000
     121         -1.145318        1.000000        0.00047115        0.00004079        0.00000361
     122         -1.141162        1.000000        0.00019655        0.00013866        0.00001244
     123         -1.135518        1.000000        0.03000854        0.00135979        0.00059695
     124         -1.134356        1.000000        0.00065854        0.00105511        0.00020863
     125         -1.132797        1.000000        0.00022747        0.00003787        0.00001499
     126         -1.131675        1.000000        0.00012660        0.00053142        0.00011712
     127         -1.130657        1.000000        0.00067371        0.00038628        0.00009163
     128         -1.129329        1.000000        0.01080096        0.00397702        0.00098655
     129         -1.127805        1.000000        0.01987059        0.01051593        0.00293695
     130         -1.126970        1.000000        0.00000530        0.00138005        0.00029531
     131         -1.125100        1.000000        0.00002796        0.00513947        0.00129074
     132         -1.124640        1.000000        0.00025520        0.00121592        0.00023867
     133         -1.122028        1.000000        0.00706656        0.00152305        0.00054292
     134         -1.120887        1.000000        0.00779485        0.00472461        0.00144911
     135         -1.119308        1.000000        0.00251178        0.00373795        0.00103150
     136         -1.118408        1.000000        0.00189931        0.00203902        0.00072658
     137         -1.117769        1.000000        0.00155651        0.00074610        0.00018908
     138         -1.116570        1.000000        0.00865536        0.00377426        0.00089071
     139         -1.115096        1.000000        0.00088924        0.00223977        0.00070876
     140         -1.114402        1.000000        0.00055720        0.00171707        0.00048163
     141         -1.114039        1.000000        0.00052652        0.00179189        0.00044963
     142         -1.112381        1.000000        0.00075558        0.00471189        0.00156045
     143         -1.111588        1.000000        0.00003848        0.00200568        0.00075800
     144         -1.111356        1.000000        0.00110315        0.00494778        0.00117026
     145         -1.110913        1.000000        0.00137429        0.00429440        0.00112084
     146         -1.109631        1.000000        0.00028794        0.00435565        0.00150334
     147         -1.107338        1.000000        0.00196367        0.00308702        0.00084727
     148         -1.107163        1.000000        0.00135671        0.00119857        0.00037704
     149         -1.106911        1.000000        0.00134943        0.00179064        0.00037176
     150         -1.105904        1.000000        0.00001179        0.00127601        0.00040190
     151         -1.104513        1.000000        0.00014081        0.00377679        0.00134647
     152         -1.103753        1.000000        0.00000807        0.00020698        0.00007244
     153         -1.103233        1.000000        0.00000995        0.00540886        0.00148661
     154         -1.101116        1.000000        0.00011941        0.00545859        0.00180570
     155         -1.099878        1.000000        0.00615338        0.00030650        0.00009883
     156         -1.099527        1.000000        0.00168019        0.00251329        0.00083640
     157         -1.099360        1.000000        0.00333000        0.00012631        0.00003160
     158         -1.097449        1.000000        0.00232199        0.00182458        0.00061280
     159         -1.097246        1.000000        0.00160732        0.00287795        0.00098739
     160         -1.096336        1.000000        0.00006761        0.00008143        0.00004306
     161         -1.095776        1.000000        0.00030212        0.00018843        0.00004273
     162         -1.094258        1.000000        0.00121655        0.00618852        0.00214418
     163         -1.093701        1.000000        0.00000628        0.00148365        0.00045943
     164         -1.093107        1.000000        0.00338516        0.00325269        0.00131098
     165         -1.091600        1.000000        0.00188158        0.00299336        0.00124954
     166         -1.090890        1.000000        0.00070102        0.00086526        0.00031159
     167         -1.090283        1.000000        0.00071649        0.00107654        0.00049670
     168         -1.089378        1.000000        0.00043773        0.00330552        0.00134132
     169         -1.088506        1.000000        0.00034099        0.00217205        0.00084602
     170         -1.086931        1.000000        0.00219576        0.00790250        0.00335083
     171         -1.086367        1.000000        0.00000579        0.00115803        0.00042926
     172         -1.085327        1.000000        0.00010476        0.00243496        0.00078318
     173         -1.084766        1.000000        0.00001047        0.00078768        0.00031016
     174         -1.083961        1.000000        0.00000361        0.00048035        0.00020360
     175         -1.082920        1.000000        0.00019803        0.01062107        0.00409835
     176         -1.081700        1.000000        0.00001266        0.00197528        0.00080633
     177         -1.081031        1.000000        0.00057300        0.00175177        0.00070733
     178         -1.080558        1.000000        0.00001215        0.00574680        0.00234220
     179         -1.080415        1.000000        0.00013910        0.00262279        0.00080588
     180         -1.080047        1.000000        0.00000802        0.00155629        0.00050276
     181         -1.077309        1.000000        0.00020574        0.00136219        0.00057225
     182         -1.076601        1.000000        0.00000593        0.01252136        0.00525928
     183         -1.076342        1.000000        0.00034059        0.00428919        0.00185380
     184         -1.076154        1.000000        0.00001711        0.00313836        0.00118967
     185         -1.075469        1.000000        0.00018159        0.00155844        0.00075528
     186         -1.074904        1.000000        0.00011089        0.00048487        0.00029083
     187         -1.074160        1.000000        0.00012263        0.00125866        0.00045369
     188         -1.073364        1.000000        0.00098750        0.00489072        0.00175766
     189         -1.071841        1.000000        0.00000068        0.00034037        0.00005435
     190         -1.071436        1.000000        0.00000255        0.00047005        0.00015460
     191         -1.070358        1.000000        0.00106840        0.01127909        0.00432381
     192         -1.070160        1.000000        0.00020201        0.00205861        0.00076965
     193         -1.069551        1.000000        0.00000191        0.00120440        0.00056828
     194         -1.069042        1.000000        0.00063676        0.00455661        0.00195408
     195         -1.068018        1.000000        0.00064528        0.02193258        0.00922109
     196         -1.067683        1.000000        0.00011143        0.01296306        0.00570157
     197         -1.067094        1.000000        0.00025069        0.00116019        0.00058581
     198         -1.066200        1.000000        0.00000144        0.00073521        0.00035411
     199         -1.065105        1.000000        0.00001239        0.00101181        0.00045273
     200         -1.064600        1.000000        0.00012906        0.00563770        0.00261490
     201         -1.063825        1.000000        0.00006260        0.00573693        0.00242435
     202         -1.063672        1.000000        0.00001793        0.00604605        0.00269294
     203         -1.062915        1.000000        0.00000080        0.00267764        0.00112946
     204         -1.062259        1.000000        0.00002569        0.00094118        0.00042466
     205         -1.061986        1.000000        0.00043730        0.00454250        0.00194792
     206         -1.060822        1.000000        0.00007113        0.00749928        0.00338901
     207         -1.060230        1.000000        0.00012975        0.00190641        0.00081193
     208         -1.059971        1.000000        0.00021538        0.00686565        0.00304499
     209         -1.059399        1.000000        0.00004422        0.00188702        0.00088034
     210         -1.058798        1.000000        0.00004890        0.00199462        0.00097715
     211         -1.058498        1.000000        0.00005240        0.00793223        0.00402943
     212         -1.057049        1.000000        0.00018126        0.00284338        0.00132713
     213         -1.056896        1.000000        0.00010921        0.00332223        0.00149645
     214         -1.056403        1.000000        0.00008458        0.01651850        0.00815022
     215         -1.056079        1.000000        0.00003677        0.00214246        0.00100715
     216         -1.055624        1.000000        0.00002956        0.00159800        0.00056149
     217         -1.055288        1.000000        0.00006461        0.00449757        0.00181747
     218         -1.054828        1.000000        0.00027528        0.01762670        0.00727173
     219         -1.054413        1.000000        0.00026298        0.02534899        0.01001783
     220         -1.053990        1.000000        0.00005861        0.00131261        0.00059927
     221         -1.053598        1.000000        0.00004788        0.00133539        0.00057654
     222         -1.053387        1.000000        0.00007915        0.00201422        0.00079249
     223         -1.052953        1.000000        0.00004145        0.00498531        0.00247063
     224         -1.052779        1.000000        0.00000693        0.01025326        0.00404386
     225         -1.052376        1.000000        0.00003450        0.00827769        0.00403682
     226         -1.052297        1.000000        0.00002888        0.00341413        0.00166549
     227         -1.051819        1.000000        0.00003465        0.00871433        0.00354767
     228         -1.051536        1.000000        0.00008630        0.00714279        0.00352615
     229         -1.051232        1.000000        0.00000251        0.00038714        0.00016847
     230         -1.050581        1.000000        0.00000372        0.00358494        0.00144458
     231         -1.050140        1.000000        0.00000875        0.00642086        0.00259197
     232         -1.049834        1.000000        0.00001202        0.00365682        0.00175639
     233         -1.049588        1.000000        0.00001505        0.00015404        0.00007801
     234         -1.049506        1.000000        0.00000099        0.00015016        0.00008302
     235         -1.048565        1.000000        0.00001753        0.00387571        0.00163204
     236         -1.048103        1.000000        0.00000120        0.00042283        0.00013352
     237         -1.048023        1.000000        0.00004401        0.00241760        0.00117589
     238         -1.047651        1.000000        0.00000192        0.00021325        0.00010440
     239         -1.047305        1.000000        0.00000013        0.00014046        0.00004393
     240         -1.046707        1.000000        0.00001953        0.00133018        0.00055859
     241         -1.046592        1.000000        0.00002221        0.00134111        0.00054409
     242         -1.046281        1.000000        0.00002425        0.00072837        0.00027785
     243         -1.045974        1.000000        0.00051882        0.01340592        0.00550359
     244         -1.045866        1.000000        0.00000036        0.00074181        0.00032293
     245         -1.045771        1.000000        0.00000185        0.00010256        0.00005492
     246         -1.045301        1.000000        0.00000089        0.00001032        0.00000969
     247         -1.045020        1.000000        0.00003205        0.00082220        0.00034242
     248         -1.043956        1.000000        0.00000699        0.00101350        0.00037652
     249         -1.043818        1.000000        0.00001720        0.00109974        0.00047410
     250         -1.043244        1.000000        0.00000548        0.00155979        0.00063885
     251         -1.043119        1.000000        0.00000570        0.00007124        0.00002894
     252         -1.042993        1.000000        0.00005152        0.00007338        0.00003455
     253         -1.042515        1.000000        0.00020109        0.00300066        0.00157784
     254         -1.041302        1.000000        0.00000014        0.00014755        0.00007195
     255         -1.041116        1.000000        0.00000099        0.00013436        0.00007656
     256         -1.040594        1.000000        0.00000104        0.00121194        0.00055570
     257         -1.040094        1.000000        0.00000298        0.00046471        0.00018751
     258         -1.039599        1.000000        0.00000059        0.00028364        0.00013182
     259         -1.039408        1.000000        0.00000324        0.00020478        0.00008015
     260         -1.038970        1.000000        0.00000019        0.00002588        0.00001141
     261         -1.038561        1.000000        0.00000108        0.00003678        0.00001524
     262         -1.038022        1.000000        0.00000010        0.00000413        0.00000122
     263         -1.037841        1.000000        0.00004749        0.00430513        0.00195614
     264         -1.036991        1.000000        0.00000223        0.00007052        0.00003761
     265         -1.036854        1.000000        0.00000039        0.00001036        0.00000586
     266         -1.035910        1.000000        0.00000003        0.00000165        0.00000097
     267         -1.035115        1.000000        0.00000705        0.00001246        0.00000642
     268         -1.034275        1.000000        0.00000075        0.00005061        0.00002403
     269         -1.033697        1.000000        0.00000419        0.00001531        0.00000679
     270         -1.033444        1.000000        0.00000021        0.00005080        0.00002095
     271         -1.033385        1.000000        0.00000013        0.00007066        0.00003663
     272         -1.033262        1.000000        0.00000290        0.00005016        0.00002032
     273         -1.032346        1.000000        0.00000012        0.00000186        0.00000132
     274         -1.031626        1.000000        0.00000007        0.00000155        0.00000020
     275         -1.030746        1.000000        0.00000000        0.00000004        0.00000001
     276         -1.029780        1.000000        0.00000037        0.00000379        0.00000255
     277         -1.028980        1.000000        0.00000143        0.00000879        0.00000573
     278         -1.027492        1.000000        0.00030045        0.00672563        0.00354276
     279         -1.025795        1.000000        0.00001430        0.00027538        0.00015196
     280         -1.023990        1.000000        0.00002286        0.00049266        0.00025751
     281         -1.022755        1.000000        0.00000036        0.00000543        0.00000305
     282         -1.019871        1.000000        0.00000022        0.00000143        0.00000037
     283         -1.017737        1.000000        0.00000617        0.00008099        0.00004627
     284         -1.012409        1.000000        0.00000058        0.00000116        0.00000124
     285         -1.010522        1.000000        0.00000000        0.00000001        0.00000001
     286         -0.880961        1.000000        0.00000040        0.00000053        0.00000001
     287         -0.861761        1.000000        0.00000003        0.00000013        0.00000000
     288         -0.860652        1.000000        0.00000008        0.00000016        0.00000001
     289         -0.854811        1.000000        0.00000012        0.00000019        0.00000000
     290         -0.853189        1.000000        0.00000005        0.00000007        0.00000000
     291         -0.838407        1.000000        0.00000005        0.00000011        0.00000000
     292         -0.837131        1.000000        0.00000001        0.00000004        0.00000000
     293         -0.835422        1.000000        0.00000005        0.00000007        0.00000000
     294         -0.832873        1.000000        0.00000001        0.00000001        0.00000000
     295         -0.813092        1.000000        0.00000000        0.00000001        0.00000000
     296         -0.811309        1.000000        0.00000000        0.00000001        0.00000000
     297         -0.805633        1.000000        0.00000047        0.00000057        0.00000000
     298         -0.800994        1.000000        0.00000002        0.00000009        0.00000000
     299         -0.798544        1.000000        0.00000010        0.00000017        0.00000000
     300         -0.797176        1.000000        0.00000002        0.00000002        0.00000000
     301         -0.796065        1.000000        0.00000000        0.00000000        0.00000000
     302         -0.795247        1.000000        0.00000007        0.00000010        0.00000000
     303         -0.794465        1.000000        0.00000000        0.00000000        0.00000000
     304         -0.792558        1.000000        0.00000001        0.00000001        0.00000000
     305         -0.791532        1.000000        0.00000005        0.00000006        0.00000000
     306         -0.790931        1.000000        0.00000000        0.00000001        0.00000000
     307         -0.790366        1.000000        0.00000005        0.00000004        0.00000000