# Projected DOS for list 63 of 1 atoms, at iteration step i = 0, E(Fermi) =    -0.237583 a.u.
#     MO Eigenvalue [a.u.]      Occupation                 s                 p                 d
       1         -3.115895        1.000000        0.00000000        0.00000000        0.00000000
       2         -3.112717        1.000000        0.00000000        0.00000000        0.00000000
       3         -3.112103        1.000000        0.00000000        0.00000000        0.00000000
       4         -3.111180        1.000000        0.00000000        0.00000000        0.00000000
       5         -3.110810        1.000000        0.00000000        0.00000000        0.00000000
       6         -3.110575        1.000000        0.00000000        0.00000000        0.00000000
       7         -3.110067        1.000000        0.00000000        0.00000000        0.00000000
       8         -3.109817        1.000000        0.00000000        0.00000000        0.00000000
       9         -3.109660        1.000000        0.00000000        0.00000000        0.00000000
      10         -3.108831        1.000000        0.00000000        0.00000000        0.00000000
      11         -3.108678        1.000000        0.00000000        0.00000000        0.00000000
      12         -3.108578        1.000000        0.00000000        0.00000000        0.00000000
      13         -3.108350        1.000000        0.00000000        0.00000000        0.00000000
      14         -3.108163        1.000000        0.00000000        0.00000000        0.00000000
      15         -3.107948        1.000000        0.00000000        0.00000000        0.00000000
      16         -3.107865        1.000000        0.00000000        0.00000000        0.00000000
      17         -3.107703        1.000000        0.00000000        0.00000000        0.00000000
      18         -3.107683        1.000000        0.00000000        0.00000000        0.00000000
      19         -3.107641        1.000000        0.00000000        0.00000000        0.00000000
      20         -3.107604        1.000000        0.00000000        0.00000000        0.00000000
      21         -3.107402        1.000000        0.00000000        0.00000000        0.00000000
      22         -3.107115        1.000000        0.00000000        0.00000000        0.00000000
      23         -3.107013        1.000000        0.00000000        0.00000000        0.00000000
      24         -3.106750        1.000000        0.00000000        0.00000000        0.00000000
      25         -3.106619        1.000000        0.00000000        0.00000000        0.00000000
      26         -3.106567        1.000000        0.00000000        0.00000000        0.00000000
      27         -3.106546        1.000000        0.00000000        0.00000000        0.00000000
      28         -3.106258        1.000000        0.00000000        0.00000000        0.00000000
      29         -3.106103        1.000000        0.00000000        0.00000000        0.00000000
      30         -3.104674        1.000000        0.00000000        0.00000000        0.00000000
      31         -1.775522        1.000000        0.00000000        0.00000000        0.00000000
      32         -1.773964        1.000000        0.00000000        0.00000000        0.00000000
      33         -1.773454        1.000000        0.00000000        0.00000000        0.00000000
      34         -1.773008        1.000000        0.00000000        0.00000000        0.00000000
      35         -1.772581        1.000000        0.00000000        0.00000000        0.00000000
      36         -1.772213        1.000000        0.00000000        0.00000000        0.00000000
      37         -1.771852        1.000000        0.00000000        0.00000000        0.00000000
      38         -1.771444        1.000000        0.00000000        0.00000000        0.00000000
      39         -1.771233        1.000000        0.00000000        0.00000000        0.00000000
      40         -1.770977        1.000000        0.00000000        0.00000000        0.00000000
      41         -1.770760        1.000000        0.00000000        0.00000000        0.00000000
      42         -1.770111        1.000000        0.00000000        0.00000000        0.00000000
      43         -1.770034        1.000000        0.00000000        0.00000000        0.00000000
      44         -1.769495        1.000000        0.00000000        0.00000000        0.00000000
      45         -1.769421        1.000000        0.00000000        0.00000000        0.00000000
      46         -1.769063        1.000000        0.00000000        0.00000000        0.00000000
      47         -1.768532        1.000000        0.00000000        0.00000000        0.00000000
      48         -1.768412        1.000000        0.00000000        0.00000000        0.00000000
      49         -1.767811        1.000000        0.00000000        0.00000000        0.00000000
      50         -1.767614        1.000000        0.00000000        0.00000000        0.00000000
      51         -1.767477        1.000000        0.00000000        0.00000000        0.00000000
      52         -1.765531        1.000000        0.00000000        0.00000000        0.00000000
      53         -1.765088        1.000000        0.00000000        0.00000000        0.00000000
      54         -1.764557        1.000000        0.00000000        0.00000000        0.00000000
      55         -1.763772        1.000000        0.00000000        0.00000000        0.00000000
      56         -1.763328        1.000000        0.00000000        0.00000000        0.00000000
      57         -1.762925        1.000000        0.00000000        0.00000000        0.00000000
      58         -1.762506        1.000000        0.00000000        0.00000000        0.00000000
      59         -1.762119        1.000000        0.00000000        0.00000000        0.00000000
      60         -1.762053        1.000000        0.00000000        0.00000000        0.00000000
      61         -1.761895        1.000000        0.00000000        0.00000000        0.00000000
      62         -1.761602        1.000000        0.00000000        0.00000000        0.00000000
      63         -1.761509        1.000000        0.00000000        0.00000000        0.00000000
      64         -1.761377        1.000000        0.00000000        0.00000000        0.00000000
      65         -1.761171        1.000000        0.00000000        0.00000000        0.00000000
      66         -1.760998        1.000000        0.00000000        0.00000000        0.00000000
      67         -1.760877        1.000000        0.00000000        0.00000000        0.00000000
      68         -1.760806        1.000000        0.00000000        0.00000000        0.00000000
      69         -1.760684        1.000000        0.00000000        0.00000000        0.00000000
      70         -1.760645        1.000000        0.00000000        0.00000000        0.00000000
      71         -1.760442        1.000000        0.00000000        0.00000000        0.00000000
      72         -1.760098        1.000000        0.00000000        0.00000000        0.00000000
      73         -1.759962        1.000000        0.00000000        0.00000000        0.00000000
      74         -1.759824        1.000000        0.00000000        0.00000000        0.00000000
      75         -1.759787        1.000000        0.00000000        0.00000000        0.00000000
      76         -1.759638        1.000000        0.00000000        0.00000000        0.00000000
      77         -1.759601        1.000000        0.00000000        0.00000000        0.00000000
      78         -1.759512        1.000000        0.00000000        0.00000000        0.00000000
      79         -1.759406        1.000000        0.00000000        0.00000000        0.00000000
      80         -1.759287        1.000000        0.00000000        0.00000000        0.00000000
      81         -1.759176        1.000000        0.00000000        0.00000000        0.00000000
      82         -1.758872        1.000000        0.00000000        0.00000000        0.00000000
      83         -1.758781        1.000000        0.00000000        0.00000000        0.00000000
      84         -1.758726        1.000000        0.00000000        0.00000000        0.00000000
      85         -1.758559        1.000000        0.00000000        0.00000000        0.00000000
      86         -1.758378        1.000000        0.00000000        0.00000000        0.00000000
      87         -1.758294        1.000000        0.00000000        0.00000000        0.00000000
      88         -1.758087        1.000000        0.00000000        0.00000000        0.00000000
      89         -1.757987        1.000000        0.00000000        0.00000000        0.00000000
      90         -1.757734        1.000000        0.00000000        0.00000000        0.00000000
      91         -1.757649        1.000000        0.00000000        0.00000000        0.00000000
      92         -1.757529        1.000000        0.00000000        0.00000000        0.00000000
      93         -1.757404        1.000000        0.00000000        0.00000000        0.00000000
      94         -1.757324        1.000000        0.00000000        0.00000000        0.00000000
      95         -1.757187        1.000000        0.00000000        0.00000000        0.00000000
      96         -1.757137        1.000000        0.00000000        0.00000000        0.00000000
      97         -1.756770        1.000000        0.00000000        0.00000000        0.00000000
      98         -1.756598        1.000000        0.00000000        0.00000000        0.00000000
      99         -1.756513        1.000000        0.00000000        0.00000000        0.00000000
     100         -1.756186        1.000000        0.00000000        0.00000000        0.00000000
     101         -1.755847        1.000000        0.00000000        0.00000000        0.00000000
     102         -1.755716        1.000000        0.00000000        0.00000000        0.00000000
     103         -1.755306        1.000000        0.00000000        0.00000000        0.00000000
     104         -1.755052        1.000000        0.00000000        0.00000000        0.00000000
     105         -1.754765        1.000000        0.00000000        0.00000000        0.00000000
     106         -1.754094        1.000000        0.00000000        0.00000000        0.00000000
     107         -1.753681        1.000000        0.00000000        0.00000000        0.00000000
     108         -1.753548        1.000000        0.00000000        0.00000000        0.00000000
     109         -1.753256        1.000000        0.00000000        0.00000000        0.00000000
     110         -1.752675        1.000000        0.00000000        0.00000000        0.00000000
     111         -1.752502        1.000000        0.00000000        0.00000000        0.00000000
     112         -1.752253        1.000000        0.00000000        0.00000000        0.00000000
     113         -1.751643        1.000000        0.00000000        0.00000000        0.00000000
     114         -1.751317        1.000000        0.00000000        0.00000000        0.00000000
     115         -1.749193        1.000000        0.00000000        0.00000000        0.00000000
     116         -1.748137        1.000000        0.00000000        0.00000000        0.00000000
     117         -1.747283        1.000000        0.00000000        0.00000000        0.00000000
     118         -1.745962        1.000000        0.00000000        0.00000000        0.00000000
     119         -1.745880        1.000000        0.00000000        0.00000000        0.00000000
     120         -1.744143        1.000000        0.00000000        0.00000000        0.00000000
     121         -1.145318        1.000000        0.00120860        0.00070061        0.00017209
     122         -1.141162        1.000000        0.00640108        0.00414963        0.00109529
     123         -1.135518        1.000000        0.00004513        0.00071029        0.00019971
     124         -1.134356        1.000000        0.00556131        0.00364632        0.00117519
     125         -1.132797        1.000000        0.00853577        0.00420697        0.00158507
     126         -1.131675        1.000000        0.00576269        0.00893146        0.00299970
     127         -1.130657        1.000000        0.00238459        0.00267967        0.00079538
     128         -1.129329        1.000000        0.00059116        0.00072343        0.00023046
     129         -1.127805        1.000000        0.00090155        0.00049137        0.00016506
     130         -1.126970        1.000000        0.00240578        0.00165054        0.00053830
     131         -1.125100        1.000000        0.00055850        0.00302793        0.00102458
     132         -1.124640        1.000000        0.00004461        0.00060362        0.00015137
     133         -1.122028        1.000000        0.00283395        0.00057598        0.00027796
     134         -1.120887        1.000000        0.00200213        0.00055846        0.00020683
     135         -1.119308        1.000000        0.00372899        0.00133401        0.00052601
     136         -1.118408        1.000000        0.00654486        0.00295833        0.00115817
     137         -1.117769        1.000000        0.00806288        0.00665925        0.00258708
     138         -1.116570        1.000000        0.00086791        0.00007673        0.00003707
     139         -1.115096        1.000000        0.00577250        0.00202564        0.00035433
     140         -1.114402        1.000000        0.00216422        0.00052584        0.00015354
     141         -1.114039        1.000000        0.00000634        0.00056663        0.00017860
     142         -1.112381        1.000000        0.00017041        0.00075241        0.00017316
     143         -1.111588        1.000000        0.00657073        0.00036504        0.00019176
     144         -1.111356        1.000000        0.00071298        0.00063183        0.00020117
     145         -1.110913        1.000000        0.00189088        0.00236759        0.00047886
     146         -1.109631        1.000000        0.00471664        0.00031712        0.00013176
     147         -1.107338        1.000000        0.00020101        0.00292594        0.00086956
     148         -1.107163        1.000000        0.00279990        0.00156624        0.00065051
     149         -1.106911        1.000000        0.00014683        0.00254785        0.00079325
     150         -1.105904        1.000000        0.00000559        0.00236892        0.00077220
     151         -1.104513        1.000000        0.00028900        0.00128933        0.00034142
     152         -1.103753        1.000000        0.00033274        0.00085417        0.00026075
     153         -1.103233        1.000000        0.00058863        0.00057303        0.00022044
     154         -1.101116        1.000000        0.00182443        0.00034136        0.00017030
     155         -1.099878        1.000000        0.00703230        0.00038882        0.00016339
     156         -1.099527        1.000000        0.00397205        0.00205209        0.00069468
     157         -1.099360        1.000000        0.00106210        0.00020843        0.00007591
     158         -1.097449        1.000000        0.00069199        0.00063237        0.00018311
     159         -1.097246        1.000000        0.00007306        0.00111077        0.00040315
     160         -1.096336        1.000000        0.00018060        0.00148163        0.00052559
     161         -1.095776        1.000000        0.00005310        0.00154286        0.00049429
     162         -1.094258        1.000000        0.00453949        0.00087610        0.00027770
     163         -1.093701        1.000000        0.00052772        0.00422155        0.00168312
     164         -1.093107        1.000000        0.00010201        0.00241609        0.00081206
     165         -1.091600        1.000000        0.01261791        0.00088683        0.00029527
     166         -1.090890        1.000000        0.00019413        0.00316472        0.00100476
     167         -1.090283        1.000000        0.00014407        0.00079152        0.00029013
     168         -1.089378        1.000000        0.00080307        0.00195062        0.00065978
     169         -1.088506        1.000000        0.00142995        0.00050492        0.00017388
     170         -1.086931        1.000000        0.00000047        0.00346962        0.00118803
     171         -1.086367        1.000000        0.00013799        0.00125517        0.00046246
     172         -1.085327        1.000000        0.00001629        0.00036581        0.00012842
     173         -1.084766        1.000000        0.00157641        0.01646958        0.00580193
     174         -1.083961        1.000000        0.00005334        0.00026219        0.00008916
     175         -1.082920        1.000000        0.00041464        0.00379509        0.00124855
     176         -1.081700        1.000000        0.00002937        0.00150582        0.00048780
     177         -1.081031        1.000000        0.00000192        0.00161753        0.00067316
     178         -1.080558        1.000000        0.00042712        0.00105272        0.00046264
     179         -1.080415        1.000000        0.00006275        0.00085844        0.00029897
     180         -1.080047        1.000000        0.00000926        0.00116664        0.00055646
     181         -1.077309        1.000000        0.00002229        0.00022131        0.00008577
     182         -1.076601        1.000000        0.00015177        0.00110764        0.00046438
     183         -1.076342        1.000000        0.00013348        0.00287561        0.00111216
     184         -1.076154        1.000000        0.00000706        0.00015598        0.00005906
     185         -1.075469        1.000000        0.00016757        0.00029539        0.00007308
     186         -1.074904        1.000000        0.00002078        0.00037434        0.00013373
     187         -1.074160        1.000000        0.00048260        0.00128726        0.00062696
     188         -1.073364        1.000000        0.00004713        0.00261167        0.00099036
     189         -1.071841        1.000000        0.00003092        0.00351974        0.00162980
     190         -1.071436        1.000000        0.00003121        0.00553423        0.00197437
     191         -1.070358        1.000000        0.00073231        0.00428650        0.00162733
     192         -1.070160        1.000000        0.00016628        0.00166346        0.00071954
     193         -1.069551        1.000000        0.00010964        0.00352578        0.00138615
     194         -1.069042        1.000000        0.00160090        0.01557870        0.00682638
     195         -1.068018        1.000000        0.00017030        0.00667252        0.00301168
     196         -1.067683        1.000000        0.00037160        0.00423344        0.00181068
     197         -1.067094        1.000000        0.00005303        0.00050041        0.00025061
     198         -1.066200        1.000000        0.00003925        0.00017456        0.00010814
     199         -1.065105        1.000000        0.00022441        0.01691740        0.00786243
     200         -1.064600        1.000000        0.00016240        0.00471010        0.00219531
     201         -1.063825        1.000000        0.00018264        0.01269024        0.00577143
     202         -1.063672        1.000000        0.00001012        0.00036050        0.00011871
     203         -1.062915        1.000000        0.00001116        0.00099196        0.00042703
     204         -1.062259        1.000000        0.00093790        0.00417698        0.00212998
     205         -1.061986        1.000000        0.00011577        0.00035941        0.00016519
     206         -1.060822        1.000000        0.00075118        0.00662712        0.00324795
     207         -1.060230        1.000000        0.00000377        0.00027196        0.00012274
     208         -1.059971        1.000000        0.00000387        0.00086100        0.00031408
     209         -1.059399        1.000000        0.00061498        0.01457178        0.00652618
     210         -1.058798        1.000000        0.00000523        0.00051889        0.00019814
     211         -1.058498        1.000000        0.00009017        0.00095606        0.00033816
     212         -1.057049        1.000000        0.00014516        0.00175294        0.00070111
     213         -1.056896        1.000000        0.00002238        0.00015114        0.00004044
     214         -1.056403        1.000000        0.00000053        0.00004073        0.00001782
     215         -1.056079        1.000000        0.00002630        0.00032716        0.00012484
     216         -1.055624        1.000000        0.00002633        0.00016766        0.00007750
     217         -1.055288        1.000000        0.00008642        0.00084040        0.00028151
     218         -1.054828        1.000000        0.00009049        0.00181392        0.00083030
     219         -1.054413        1.000000        0.00006500        0.00054441        0.00023770
     220         -1.053990        1.000000        0.00005611        0.00074909        0.00037180
     221         -1.053598        1.000000        0.00065142        0.00345053        0.00123411
     222         -1.053387        1.000000        0.00000099        0.00160292        0.00069517
     223         -1.052953        1.000000        0.00027034        0.00376988        0.00200604
     224         -1.052779        1.000000        0.00007679        0.00062623        0.00026563
     225         -1.052376        1.000000        0.00002885        0.00036261        0.00015991
     226         -1.052297        1.000000        0.00001523        0.00034266        0.00014059
     227         -1.051819        1.000000        0.00007277        0.00090113        0.00044871
     228         -1.051536        1.000000        0.00000432        0.00077246        0.00033985
     229         -1.051232        1.000000        0.00002346        0.00063090        0.00026294
     230         -1.050581        1.000000        0.00000809        0.00114707        0.00048157
     231         -1.050140        1.000000        0.00002684        0.00015077        0.00009610
     232         -1.049834        1.000000        0.00016881        0.00059258        0.00022534
     233         -1.049588        1.000000        0.00001357        0.00052285        0.00021040
     234         -1.049506        1.000000        0.00031893        0.00200711        0.00072652
     235         -1.048565        1.000000        0.00024947        0.00084637        0.00030730
     236         -1.048103        1.000000        0.00004515        0.00008578        0.00002987
     237         -1.048023        1.000000        0.00001582        0.00003028        0.00001514
     238         -1.047651        1.000000        0.00061345        0.00261134        0.00104079
     239         -1.047305        1.000000        0.00008278        0.00191013        0.00061964
     240         -1.046707        1.000000        0.00003790        0.00131136        0.00060319
     241         -1.046592        1.000000        0.00014480        0.00179695        0.00059850
     242         -1.046281        1.000000        0.00002646        0.00248190        0.00090252
     243         -1.045974        1.000000        0.00001819        0.00009509        0.00005516
     244         -1.045866        1.000000        0.00003458        0.00052129        0.00030454
     245         -1.045771        1.000000        0.00016943        0.00028051        0.00013260
     246         -1.045301        1.000000        0.00003664        0.00014698        0.00008352
     247         -1.045020        1.000000        0.00015332        0.00123307        0.00054962
     248         -1.043956        1.000000        0.00089906        0.00785829        0.00299548
     249         -1.043818        1.000000        0.00058341        0.00742733        0.00273197
     250         -1.043244        1.000000        0.00051370        0.00746141        0.00266770
     251         -1.043119        1.000000        0.00052884        0.00561786        0.00218732
     252         -1.042993        1.000000        0.00006035        0.00068836        0.00028520
     253         -1.042515        1.000000        0.00000066        0.00023758        0.00008623
     254         -1.041302        1.000000        0.00081857        0.00679523        0.00262203
     255         -1.041116        1.000000        0.00007180        0.00388363        0.00144620
     256         -1.040594        1.000000        0.00000087        0.00024284        0.00008336
     257         -1.040094        1.000000        0.00068273        0.00472924        0.00204418
     258         -1.039599        1.000000        0.00026543        0.00307057        0.00120479
     259         -1.039408        1.000000        0.00011937        0.00137243        0.00058704
     260         -1.038970        1.000000        0.00002879        0.00055697        0.00025902
     261         -1.038561        1.000000        0.00239350        0.03887185        0.01546480
     262         -1.038022        1.000000        0.00005417        0.00075046        0.00027186
     263         -1.037841        1.000000        0.00000381        0.00014692        0.00005796
     264         -1.036991        1.000000        0.00001266        0.00022795        0.00010133
     265         -1.036854        1.000000        0.00000002        0.00009660        0.00005676
     266         -1.035910        1.000000        0.00000327        0.00204367        0.00093436
     267         -1.035115        1.000000        0.00000100        0.00028326        0.00009821
     268         -1.034275        1.000000        0.00000899        0.00195815        0.00067212
     269         -1.033697        1.000000        0.00003323        0.00447497        0.00209343
     270         -1.033444        1.000000        0.00002009        0.00392197        0.00183189
     271         -1.033385        1.000000        0.00001532        0.00354586        0.00163166
     272         -1.033262        1.000000        0.00005487        0.00735850        0.00355484
     273         -1.032346        1.000000        0.00000032        0.00006349        0.00003306
     274         -1.031626        1.000000        0.00000072        0.00007369        0.00003532
     275         -1.030746        1.000000        0.00005934        0.07507573        0.03660405
     276         -1.029780        1.000000        0.00000825        0.00211976        0.00103540
     277         -1.028980        1.000000        0.00000585        0.00108665        0.00051552
     278         -1.027492        1.000000        0.00000001        0.00000062        0.00000024
     279         -1.025795        1.000000        0.00000002        0.00000281        0.00000146
     280         -1.023990        1.000000        0.00000003        0.00000298        0.00000117
     281         -1.022755        1.000000        0.00000437        0.00004741        0.00001667
     282         -1.019871        1.000000        0.00000024        0.00000486        0.00000211
     283         -1.017737        1.000000        0.00000001        0.00000002        0.00000002
     284         -1.012409        1.000000        0.00000005        0.00000120        0.00000065
     285         -1.010522        1.000000        0.00000008        0.00000979        0.00000547
     286         -0.880961        1.000000        0.00000000        0.00000000        0.00000000
     287         -0.861761        1.000000        0.00000000        0.00000000        0.00000000
     288         -0.860652        1.000000        0.00000000        0.00000000        0.00000000
     289         -0.854811        1.000000        0.00000000        0.00000000        0.00000000
     290         -0.853189        1.000000        0.00000000        0.00000000        0.00000000
     291         -0.838407        1.000000        0.00000000        0.00000000        0.00000000
     292         -0.837131        1.000000        0.00000000        0.00000000        0.00000000
     293         -0.835422        1.000000        0.00000000        0.00000000        0.00000000
     294         -0.832873        1.000000        0.00000000        0.00000000        0.00000000
     295         -0.813092        1.000000        0.00000000        0.00000000        0.00000000
     296         -0.811309        1.000000        0.00000000        0.00000000        0.00000000
     297         -0.805633        1.000000        0.00000000        0.00000000        0.00000000
     298         -0.800994        1.000000        0.00000000        0.00000000        0.00000000
     299         -0.798544        1.000000        0.00000000        0.00000000        0.00000000
     300         -0.797176        1.000000        0.00000000        0.00000000        0.00000000
     301         -0.796065        1.000000        0.00000000        0.00000000        0.00000000
     302         -0.795247        1.000000        0.00000000        0.00000000        0.00000000
     303         -0.794465        1.000000        0.00000000        0.00000000        0.00000000
     304         -0.792558        1.000000        0.00000000        0.00000000        0.00000000
     305         -0.791532        1.000000        0.00000000        0.00000000        0.00000000
     306         -0.790931        1.000000        0.00000000        0.00000000        0.00000000
     307         -0.790366        1.000000        0.00000000        0.00000000        0.00000000