# Projected DOS for list 15 of 1 atoms, at iteration step i = 0, E(Fermi) =    -0.237583 a.u.
#     MO Eigenvalue [a.u.]      Occupation                 s                 p                 d
       1         -3.115895        1.000000        0.00000000        0.00000000        0.00000000
       2         -3.112717        1.000000        0.00000000        0.00000000        0.00000000
       3         -3.112103        1.000000        0.00000000        0.00000000        0.00000000
       4         -3.111180        1.000000        0.00000000        0.00000000        0.00000000
       5         -3.110810        1.000000        0.00000000        0.00000000        0.00000000
       6         -3.110575        1.000000        0.00000000        0.00000000        0.00000000
       7         -3.110067        1.000000        0.00000000        0.00000000        0.00000000
       8         -3.109817        1.000000        0.00000000        0.00000000        0.00000000
       9         -3.109660        1.000000        0.00000000        0.00000000        0.00000000
      10         -3.108831        1.000000        0.00000000        0.00000000        0.00000000
      11         -3.108678        1.000000        0.00000000        0.00000000        0.00000000
      12         -3.108578        1.000000        0.00000000        0.00000000        0.00000000
      13         -3.108350        1.000000        0.00000000        0.00000000        0.00000000
      14         -3.108163        1.000000        0.00000000        0.00000000        0.00000000
      15         -3.107948        1.000000        0.00000000        0.00000000        0.00000000
      16         -3.107865        1.000000        0.00000000        0.00000000        0.00000000
      17         -3.107703        1.000000        0.00000000        0.00000000        0.00000000
      18         -3.107683        1.000000        0.00000000        0.00000000        0.00000000
      19         -3.107641        1.000000        0.00000000        0.00000000        0.00000000
      20         -3.107604        1.000000        0.00000000        0.00000000        0.00000000
      21         -3.107402        1.000000        0.00000000        0.00000000        0.00000000
      22         -3.107115        1.000000        0.00000000        0.00000000        0.00000000
      23         -3.107013        1.000000        0.00000000        0.00000000        0.00000000
      24         -3.106750        1.000000        0.00000000        0.00000000        0.00000000
      25         -3.106619        1.000000        0.00000000        0.00000000        0.00000000
      26         -3.106567        1.000000        0.00000000        0.00000000        0.00000000
      27         -3.106546        1.000000        0.00000000        0.00000000        0.00000000
      28         -3.106258        1.000000        0.00000000        0.00000000        0.00000000
      29         -3.106103        1.000000        0.00000000        0.00000000        0.00000000
      30         -3.104674        1.000000        0.00000000        0.00000000        0.00000000
      31         -1.775522        1.000000        0.00000000        0.00000000        0.00000000
      32         -1.773964        1.000000        0.00000000        0.00000000        0.00000000
      33         -1.773454        1.000000        0.00000000        0.00000000        0.00000000
      34         -1.773008        1.000000        0.00000000        0.00000000        0.00000000
      35         -1.772581        1.000000        0.00000000        0.00000000        0.00000000
      36         -1.772213        1.000000        0.00000000        0.00000000        0.00000000
      37         -1.771852        1.000000        0.00000000        0.00000000        0.00000000
      38         -1.771444        1.000000        0.00000000        0.00000000        0.00000000
      39         -1.771233        1.000000        0.00000000        0.00000000        0.00000000
      40         -1.770977        1.000000        0.00000000        0.00000000        0.00000000
      41         -1.770760        1.000000        0.00000000        0.00000000        0.00000000
      42         -1.770111        1.000000        0.00000000        0.00000000        0.00000000
      43         -1.770034        1.000000        0.00000000        0.00000000        0.00000000
      44         -1.769495        1.000000        0.00000000        0.00000000        0.00000000
      45         -1.769421        1.000000        0.00000000        0.00000000        0.00000000
      46         -1.769063        1.000000        0.00000000        0.00000000        0.00000000
      47         -1.768532        1.000000        0.00000000        0.00000000        0.00000000
      48         -1.768412        1.000000        0.00000000        0.00000000        0.00000000
      49         -1.767811        1.000000        0.00000000        0.00000000        0.00000000
      50         -1.767614        1.000000        0.00000000        0.00000000        0.00000000
      51         -1.767477        1.000000        0.00000000        0.00000000        0.00000000
      52         -1.765531        1.000000        0.00000000        0.00000000        0.00000000
      53         -1.765088        1.000000        0.00000000        0.00000000        0.00000000
      54         -1.764557        1.000000        0.00000000        0.00000000        0.00000000
      55         -1.763772        1.000000        0.00000000        0.00000000        0.00000000
      56         -1.763328        1.000000        0.00000000        0.00000000        0.00000000
      57         -1.762925        1.000000        0.00000000        0.00000000        0.00000000
      58         -1.762506        1.000000        0.00000000        0.00000000        0.00000000
      59         -1.762119        1.000000        0.00000000        0.00000000        0.00000000
      60         -1.762053        1.000000        0.00000000        0.00000000        0.00000000
      61         -1.761895        1.000000        0.00000000        0.00000000        0.00000000
      62         -1.761602        1.000000        0.00000000        0.00000000        0.00000000
      63         -1.761509        1.000000        0.00000000        0.00000000        0.00000000
      64         -1.761377        1.000000        0.00000000        0.00000000        0.00000000
      65         -1.761171        1.000000        0.00000000        0.00000000        0.00000000
      66         -1.760998        1.000000        0.00000000        0.00000000        0.00000000
      67         -1.760877        1.000000        0.00000000        0.00000000        0.00000000
      68         -1.760806        1.000000        0.00000000        0.00000000        0.00000000
      69         -1.760684        1.000000        0.00000000        0.00000000        0.00000000
      70         -1.760645        1.000000        0.00000000        0.00000000        0.00000000
      71         -1.760442        1.000000        0.00000000        0.00000000        0.00000000
      72         -1.760098        1.000000        0.00000000        0.00000000        0.00000000
      73         -1.759962        1.000000        0.00000000        0.00000000        0.00000000
      74         -1.759824        1.000000        0.00000000        0.00000000        0.00000000
      75         -1.759787        1.000000        0.00000000        0.00000000        0.00000000
      76         -1.759638        1.000000        0.00000000        0.00000000        0.00000000
      77         -1.759601        1.000000        0.00000000        0.00000000        0.00000000
      78         -1.759512        1.000000        0.00000000        0.00000000        0.00000000
      79         -1.759406        1.000000        0.00000000        0.00000000        0.00000000
      80         -1.759287        1.000000        0.00000000        0.00000000        0.00000000
      81         -1.759176        1.000000        0.00000000        0.00000000        0.00000000
      82         -1.758872        1.000000        0.00000000        0.00000000        0.00000000
      83         -1.758781        1.000000        0.00000000        0.00000000        0.00000000
      84         -1.758726        1.000000        0.00000000        0.00000000        0.00000000
      85         -1.758559        1.000000        0.00000000        0.00000000        0.00000000
      86         -1.758378        1.000000        0.00000000        0.00000000        0.00000000
      87         -1.758294        1.000000        0.00000000        0.00000000        0.00000000
      88         -1.758087        1.000000        0.00000000        0.00000000        0.00000000
      89         -1.757987        1.000000        0.00000000        0.00000000        0.00000000
      90         -1.757734        1.000000        0.00000000        0.00000000        0.00000000
      91         -1.757649        1.000000        0.00000000        0.00000000        0.00000000
      92         -1.757529        1.000000        0.00000000        0.00000000        0.00000000
      93         -1.757404        1.000000        0.00000000        0.00000000        0.00000000
      94         -1.757324        1.000000        0.00000000        0.00000000        0.00000000
      95         -1.757187        1.000000        0.00000000        0.00000000        0.00000000
      96         -1.757137        1.000000        0.00000000        0.00000000        0.00000000
      97         -1.756770        1.000000        0.00000000        0.00000000        0.00000000
      98         -1.756598        1.000000        0.00000000        0.00000000        0.00000000
      99         -1.756513        1.000000        0.00000000        0.00000000        0.00000000
     100         -1.756186        1.000000        0.00000000        0.00000000        0.00000000
     101         -1.755847        1.000000        0.00000000        0.00000000        0.00000000
     102         -1.755716        1.000000        0.00000000        0.00000000        0.00000000
     103         -1.755306        1.000000        0.00000000        0.00000000        0.00000000
     104         -1.755052        1.000000        0.00000000        0.00000000        0.00000000
     105         -1.754765        1.000000        0.00000000        0.00000000        0.00000000
     106         -1.754094        1.000000        0.00000000        0.00000000        0.00000000
     107         -1.753681        1.000000        0.00000000        0.00000000        0.00000000
     108         -1.753548        1.000000        0.00000000        0.00000000        0.00000000
     109         -1.753256        1.000000        0.00000000        0.00000000        0.00000000
     110         -1.752675        1.000000        0.00000000        0.00000000        0.00000000
     111         -1.752502        1.000000        0.00000000        0.00000000        0.00000000
     112         -1.752253        1.000000        0.00000000        0.00000000        0.00000000
     113         -1.751643        1.000000        0.00000000        0.00000000        0.00000000
     114         -1.751317        1.000000        0.00000000        0.00000000        0.00000000
     115         -1.749193        1.000000        0.00000000        0.00000000        0.00000000
     116         -1.748137        1.000000        0.00000000        0.00000000        0.00000000
     117         -1.747283        1.000000        0.00000000        0.00000000        0.00000000
     118         -1.745962        1.000000        0.00000000        0.00000000        0.00000000
     119         -1.745880        1.000000        0.00000000        0.00000000        0.00000000
     120         -1.744143        1.000000        0.00000000        0.00000000        0.00000000
     121         -1.145318        1.000000        0.00074490        0.00011516        0.00003212
     122         -1.141162        1.000000        0.00061288        0.00013587        0.00002488
     123         -1.135518        1.000000        0.01810108        0.00144746        0.00055590
     124         -1.134356        1.000000        0.00365505        0.00030766        0.00006026
     125         -1.132797        1.000000        0.00024865        0.00070489        0.00014545
     126         -1.131675        1.000000        0.00163984        0.00169751        0.00035439
     127         -1.130657        1.000000        0.00331608        0.00038532        0.00010485
     128         -1.129329        1.000000        0.02311662        0.00361064        0.00074247
     129         -1.127805        1.000000        0.00160897        0.00262418        0.00075642
     130         -1.126970        1.000000        0.00551479        0.00123784        0.00032269
     131         -1.125100        1.000000        0.02777744        0.00083629        0.00057836
     132         -1.124640        1.000000        0.00157192        0.00119429        0.00042309
     133         -1.122028        1.000000        0.00194015        0.00076500        0.00018574
     134         -1.120887        1.000000        0.00008907        0.00499765        0.00111243
     135         -1.119308        1.000000        0.00106399        0.00315891        0.00108693
     136         -1.118408        1.000000        0.00580742        0.00647676        0.00194926
     137         -1.117769        1.000000        0.00092591        0.00353939        0.00109408
     138         -1.116570        1.000000        0.00077091        0.00269222        0.00086240
     139         -1.115096        1.000000        0.00012679        0.00367470        0.00114062
     140         -1.114402        1.000000        0.00069629        0.00728005        0.00277295
     141         -1.114039        1.000000        0.00080165        0.00265243        0.00098764
     142         -1.112381        1.000000        0.00001928        0.01090292        0.00363895
     143         -1.111588        1.000000        0.00192182        0.00068865        0.00021822
     144         -1.111356        1.000000        0.00000241        0.00171780        0.00070828
     145         -1.110913        1.000000        0.00162645        0.00591801        0.00164752
     146         -1.109631        1.000000        0.00057940        0.00468071        0.00136551
     147         -1.107338        1.000000        0.00044647        0.00223041        0.00058228
     148         -1.107163        1.000000        0.00082766        0.00078271        0.00026292
     149         -1.106911        1.000000        0.00619567        0.00266783        0.00063339
     150         -1.105904        1.000000        0.00137427        0.00104374        0.00033147
     151         -1.104513        1.000000        0.00005075        0.00225269        0.00072751
     152         -1.103753        1.000000        0.00017450        0.00101565        0.00034941
     153         -1.103233        1.000000        0.00048041        0.00106798        0.00039332
     154         -1.101116        1.000000        0.00259717        0.00250615        0.00085345
     155         -1.099878        1.000000        0.00113475        0.00160063        0.00059133
     156         -1.099527        1.000000        0.00028653        0.00344397        0.00111893
     157         -1.099360        1.000000        0.00002604        0.00025080        0.00009211
     158         -1.097449        1.000000        0.00068389        0.00150664        0.00052687
     159         -1.097246        1.000000        0.00166117        0.00097589        0.00040873
     160         -1.096336        1.000000        0.00006342        0.00163687        0.00055343
     161         -1.095776        1.000000        0.00024271        0.00020809        0.00008572
     162         -1.094258        1.000000        0.00006244        0.00477690        0.00188092
     163         -1.093701        1.000000        0.00012775        0.00093824        0.00031926
     164         -1.093107        1.000000        0.00016567        0.00444989        0.00179814
     165         -1.091600        1.000000        0.00044927        0.00046318        0.00018839
     166         -1.090890        1.000000        0.00030745        0.00568896        0.00261836
     167         -1.090283        1.000000        0.00434952        0.00037220        0.00032480
     168         -1.089378        1.000000        0.00141356        0.00331648        0.00141493
     169         -1.088506        1.000000        0.00035774        0.00059128        0.00019749
     170         -1.086931        1.000000        0.00088916        0.00899105        0.00296462
     171         -1.086367        1.000000        0.00004585        0.00058603        0.00020581
     172         -1.085327        1.000000        0.00009317        0.00067050        0.00026923
     173         -1.084766        1.000000        0.00001253        0.00305126        0.00129130
     174         -1.083961        1.000000        0.00270790        0.00229035        0.00116268
     175         -1.082920        1.000000        0.00053727        0.01075654        0.00376888
     176         -1.081700        1.000000        0.00120356        0.00358986        0.00181968
     177         -1.081031        1.000000        0.00044270        0.00331602        0.00130485
     178         -1.080558        1.000000        0.00054629        0.00239725        0.00083191
     179         -1.080415        1.000000        0.00071999        0.00302198        0.00154030
     180         -1.080047        1.000000        0.00000128        0.00118693        0.00041936
     181         -1.077309        1.000000        0.00014887        0.00228048        0.00074348
     182         -1.076601        1.000000        0.00118952        0.00727150        0.00336654
     183         -1.076342        1.000000        0.00026901        0.00143281        0.00075980
     184         -1.076154        1.000000        0.00029154        0.00160173        0.00056901
     185         -1.075469        1.000000        0.00033850        0.00570384        0.00216255
     186         -1.074904        1.000000        0.00061187        0.00105139        0.00034949
     187         -1.074160        1.000000        0.00011920        0.00421450        0.00165852
     188         -1.073364        1.000000        0.00024125        0.00040080        0.00018505
     189         -1.071841        1.000000        0.00004348        0.00326427        0.00134636
     190         -1.071436        1.000000        0.00002051        0.00343155        0.00159963
     191         -1.070358        1.000000        0.00000234        0.00708105        0.00284754
     192         -1.070160        1.000000        0.00007647        0.00561730        0.00247222
     193         -1.069551        1.000000        0.00001520        0.00184444        0.00086512
     194         -1.069042        1.000000        0.00008452        0.01311022        0.00503008
     195         -1.068018        1.000000        0.00017429        0.01095347        0.00436282
     196         -1.067683        1.000000        0.00002363        0.00734293        0.00312906
     197         -1.067094        1.000000        0.00001231        0.00566217        0.00262326
     198         -1.066200        1.000000        0.00004809        0.00032593        0.00014517
     199         -1.065105        1.000000        0.00000118        0.00085297        0.00035392
     200         -1.064600        1.000000        0.00003545        0.00527535        0.00208739
     201         -1.063825        1.000000        0.00000709        0.00418371        0.00159263
     202         -1.063672        1.000000        0.00026108        0.01051256        0.00419714
     203         -1.062915        1.000000        0.00000592        0.00134624        0.00047500
     204         -1.062259        1.000000        0.00000876        0.00933151        0.00456485
     205         -1.061986        1.000000        0.00031068        0.01913713        0.00776890
     206         -1.060822        1.000000        0.00006058        0.01312245        0.00689333
     207         -1.060230        1.000000        0.00006960        0.00472171        0.00189534
     208         -1.059971        1.000000        0.00017979        0.00829851        0.00369364
     209         -1.059399        1.000000        0.00006915        0.00323111        0.00134174
     210         -1.058798        1.000000        0.00002246        0.00337320        0.00153890
     211         -1.058498        1.000000        0.00001154        0.00542155        0.00269862
     212         -1.057049        1.000000        0.00011390        0.01455264        0.00712160
     213         -1.056896        1.000000        0.00009730        0.00595257        0.00278430
     214         -1.056403        1.000000        0.00000552        0.00177074        0.00084495
     215         -1.056079        1.000000        0.00004346        0.01517099        0.00676454
     216         -1.055624        1.000000        0.00004098        0.00086226        0.00036260
     217         -1.055288        1.000000        0.00000359        0.00081688        0.00033229
     218         -1.054828        1.000000        0.00000044        0.00130298        0.00054798
     219         -1.054413        1.000000        0.00002871        0.00179760        0.00078492
     220         -1.053990        1.000000        0.00020138        0.00892538        0.00372240
     221         -1.053598        1.000000        0.00016050        0.01200360        0.00514563
     222         -1.053387        1.000000        0.00004632        0.00027437        0.00015956
     223         -1.052953        1.000000        0.00003682        0.00095739        0.00041106
     224         -1.052779        1.000000        0.00004739        0.00247166        0.00112085
     225         -1.052376        1.000000        0.00000850        0.00372322        0.00144314
     226         -1.052297        1.000000        0.00002736        0.00456217        0.00179712
     227         -1.051819        1.000000        0.00000384        0.00255880        0.00128266
     228         -1.051536        1.000000        0.00003806        0.00275251        0.00135462
     229         -1.051232        1.000000        0.00000340        0.00437484        0.00219578
     230         -1.050581        1.000000        0.00008191        0.00945625        0.00414490
     231         -1.050140        1.000000        0.00001828        0.00557772        0.00258225
     232         -1.049834        1.000000        0.00000405        0.00173487        0.00074296
     233         -1.049588        1.000000        0.00040403        0.02056434        0.00884098
     234         -1.049506        1.000000        0.00000314        0.00099248        0.00044229
     235         -1.048565        1.000000        0.00001995        0.00282581        0.00128901
     236         -1.048103        1.000000        0.00000388        0.00069787        0.00039509
     237         -1.048023        1.000000        0.00001108        0.00220370        0.00097395
     238         -1.047651        1.000000        0.00000872        0.00168694        0.00073835
     239         -1.047305        1.000000        0.00000208        0.00057979        0.00025920
     240         -1.046707        1.000000        0.00000094        0.00012255        0.00005184
     241         -1.046592        1.000000        0.00000001        0.00000731        0.00000366
     242         -1.046281        1.000000        0.00000067        0.00014457        0.00008179
     243         -1.045974        1.000000        0.00000313        0.00008424        0.00005722
     244         -1.045866        1.000000        0.00002118        0.00129872        0.00065682
     245         -1.045771        1.000000        0.00000624        0.00073342        0.00038379
     246         -1.045301        1.000000        0.00000558        0.00089102        0.00044294
     247         -1.045020        1.000000        0.00000231        0.00008116        0.00002753
     248         -1.043956        1.000000        0.00000021        0.00060663        0.00032514
     249         -1.043818        1.000000        0.00000256        0.00009287        0.00003437
     250         -1.043244        1.000000        0.00000501        0.00042978        0.00018384
     251         -1.043119        1.000000        0.00000379        0.00006513        0.00002725
     252         -1.042993        1.000000        0.00002156        0.00045500        0.00020114
     253         -1.042515        1.000000        0.00000222        0.00016782        0.00009733
     254         -1.041302        1.000000        0.00002865        0.00067770        0.00030469
     255         -1.041116        1.000000        0.00000030        0.00008507        0.00003668
     256         -1.040594        1.000000        0.00001268        0.00033578        0.00015872
     257         -1.040094        1.000000        0.00000170        0.00003388        0.00001846
     258         -1.039599        1.000000        0.00000188        0.00059576        0.00026122
     259         -1.039408        1.000000        0.00000967        0.00022177        0.00009055
     260         -1.038970        1.000000        0.00000180        0.00030020        0.00014044
     261         -1.038561        1.000000        0.00000020        0.00005949        0.00003630
     262         -1.038022        1.000000        0.00018372        0.00276641        0.00148070
     263         -1.037841        1.000000        0.00000101        0.00006829        0.00003500
     264         -1.036991        1.000000        0.00001639        0.00104955        0.00046211
     265         -1.036854        1.000000        0.00000231        0.00026303        0.00013560
     266         -1.035910        1.000000        0.00000043        0.00000636        0.00000472
     267         -1.035115        1.000000        0.00000016        0.00012645        0.00005383
     268         -1.034275        1.000000        0.00000632        0.00007015        0.00003164
     269         -1.033697        1.000000        0.00000363        0.00027800        0.00010910
     270         -1.033444        1.000000        0.00000130        0.00015688        0.00010143
     271         -1.033385        1.000000        0.00000035        0.00001373        0.00000842
     272         -1.033262        1.000000        0.00000420        0.00002468        0.00000835
     273         -1.032346        1.000000        0.00000048        0.00000658        0.00000254
     274         -1.031626        1.000000        0.00009383        0.00116924        0.00069035
     275         -1.030746        1.000000        0.00000069        0.00004017        0.00001863
     276         -1.029780        1.000000        0.00000019        0.00000877        0.00000199
     277         -1.028980        1.000000        0.00000027        0.00003457        0.00001345
     278         -1.027492        1.000000        0.00000066        0.00011020        0.00005360
     279         -1.025795        1.000000        0.00000033        0.00000071        0.00000049
     280         -1.023990        1.000000        0.00000002        0.00001007        0.00000489
     281         -1.022755        1.000000        0.00000306        0.00016010        0.00007626
     282         -1.019871        1.000000        0.00012222        0.00129425        0.00072098
     283         -1.017737        1.000000        0.00000218        0.00003956        0.00002153
     284         -1.012409        1.000000        0.00000053        0.00000547        0.00000163
     285         -1.010522        1.000000        0.00000004        0.00000279        0.00000149
     286         -0.880961        1.000000        0.00000000        0.00000001        0.00000000
     287         -0.861761        1.000000        0.00000000        0.00000000        0.00000000
     288         -0.860652        1.000000        0.00000000        0.00000000        0.00000000
     289         -0.854811        1.000000        0.00000000        0.00000000        0.00000000
     290         -0.853189        1.000000        0.00000000        0.00000000        0.00000000
     291         -0.838407        1.000000        0.00000000        0.00000000        0.00000000
     292         -0.837131        1.000000        0.00000000        0.00000000        0.00000000
     293         -0.835422        1.000000        0.00000000        0.00000000        0.00000000
     294         -0.832873        1.000000        0.00000000        0.00000000        0.00000000
     295         -0.813092        1.000000        0.00000000        0.00000000        0.00000000
     296         -0.811309        1.000000        0.00000000        0.00000000        0.00000000
     297         -0.805633        1.000000        0.00000000        0.00000001        0.00000000
     298         -0.800994        1.000000        0.00000000        0.00000000        0.00000000
     299         -0.798544        1.000000        0.00000000        0.00000000        0.00000000
     300         -0.797176        1.000000        0.00000000        0.00000000        0.00000000
     301         -0.796065        1.000000        0.00000000        0.00000000        0.00000000
     302         -0.795247        1.000000        0.00000000        0.00000000        0.00000000
     303         -0.794465        1.000000        0.00000000        0.00000000        0.00000000
     304         -0.792558        1.000000        0.00000000        0.00000000        0.00000000
     305         -0.791532        1.000000        0.00000000        0.00000000        0.00000000
     306         -0.790931        1.000000        0.00000000        0.00000000        0.00000000
     307         -0.790366        1.000000        0.00000000        0.00000000        0.00000000