# Projected DOS for list 112 of 1 atoms, at iteration step i = 0, E(Fermi) =    -0.237583 a.u.
#     MO Eigenvalue [a.u.]      Occupation                 s                 p                 d
       1         -3.115895        1.000000        0.00000000        0.00000000        0.00000000
       2         -3.112717        1.000000        0.00000000        0.00000000        0.00000000
       3         -3.112103        1.000000        0.00000002        0.00000001        0.00000000
       4         -3.111180        1.000000        0.00000000        0.00000000        0.00000000
       5         -3.110810        1.000000        0.00000001        0.00000000        0.00000000
       6         -3.110575        1.000000        0.00000000        0.00000000        0.00000000
       7         -3.110067        1.000000        0.00000001        0.00000000        0.00000000
       8         -3.109817        1.000000        0.00000000        0.00000000        0.00000000
       9         -3.109660        1.000000        0.00000000        0.00000000        0.00000000
      10         -3.108831        1.000000        0.00000001        0.00000000        0.00000000
      11         -3.108678        1.000000        0.00000000        0.00000000        0.00000000
      12         -3.108578        1.000000        0.00000000        0.00000000        0.00000000
      13         -3.108350        1.000000        0.00000000        0.00000000        0.00000000
      14         -3.108163        1.000000        0.00000000        0.00000000        0.00000000
      15         -3.107948        1.000000        0.00000000        0.00000000        0.00000000
      16         -3.107865        1.000000        0.00000000        0.00000000        0.00000000
      17         -3.107703        1.000000        0.00000000        0.00000000        0.00000000
      18         -3.107683        1.000000        0.00000000        0.00000000        0.00000000
      19         -3.107641        1.000000        0.00000000        0.00000000        0.00000000
      20         -3.107604        1.000000        0.00000000        0.00000000        0.00000000
      21         -3.107402        1.000000        0.00000000        0.00000000        0.00000000
      22         -3.107115        1.000000        0.00000000        0.00000000        0.00000000
      23         -3.107013        1.000000        0.00000000        0.00000000        0.00000000
      24         -3.106750        1.000000        0.00000000        0.00000000        0.00000000
      25         -3.106619        1.000000        0.00000000        0.00000000        0.00000000
      26         -3.106567        1.000000        0.00000000        0.00000000        0.00000000
      27         -3.106546        1.000000        0.00000000        0.00000000        0.00000000
      28         -3.106258        1.000000        0.00000000        0.00000000        0.00000000
      29         -3.106103        1.000000        0.00000000        0.00000000        0.00000000
      30         -3.104674        1.000000        0.00000000        0.00000000        0.00000000
      31         -1.775522        1.000000        0.00000000        0.00000000        0.00000000
      32         -1.773964        1.000000        0.00000000        0.00000000        0.00000000
      33         -1.773454        1.000000        0.00000000        0.00000000        0.00000000
      34         -1.773008        1.000000        0.00000000        0.00000000        0.00000000
      35         -1.772581        1.000000        0.00000000        0.00000000        0.00000000
      36         -1.772213        1.000000        0.00000000        0.00000000        0.00000000
      37         -1.771852        1.000000        0.00000000        0.00000000        0.00000000
      38         -1.771444        1.000000        0.00000000        0.00000000        0.00000000
      39         -1.771233        1.000000        0.00000000        0.00000000        0.00000000
      40         -1.770977        1.000000        0.00000000        0.00000000        0.00000000
      41         -1.770760        1.000000        0.00000000        0.00000000        0.00000000
      42         -1.770111        1.000000        0.00000000        0.00000000        0.00000000
      43         -1.770034        1.000000        0.00000000        0.00000000        0.00000000
      44         -1.769495        1.000000        0.00000000        0.00000000        0.00000000
      45         -1.769421        1.000000        0.00000000        0.00000000        0.00000000
      46         -1.769063        1.000000        0.00000000        0.00000000        0.00000000
      47         -1.768532        1.000000        0.00000000        0.00000000        0.00000000
      48         -1.768412        1.000000        0.00000000        0.00000000        0.00000000
      49         -1.767811        1.000000        0.00000000        0.00000000        0.00000000
      50         -1.767614        1.000000        0.00000000        0.00000000        0.00000000
      51         -1.767477        1.000000        0.00000000        0.00000000        0.00000000
      52         -1.765531        1.000000        0.00000000        0.00000000        0.00000000
      53         -1.765088        1.000000        0.00000000        0.00000000        0.00000000
      54         -1.764557        1.000000        0.00000000        0.00000000        0.00000000
      55         -1.763772        1.000000        0.00000000        0.00000000        0.00000000
      56         -1.763328        1.000000        0.00000000        0.00000000        0.00000000
      57         -1.762925        1.000000        0.00000000        0.00000000        0.00000000
      58         -1.762506        1.000000        0.00000000        0.00000000        0.00000000
      59         -1.762119        1.000000        0.00000000        0.00000000        0.00000000
      60         -1.762053        1.000000        0.00000000        0.00000000        0.00000000
      61         -1.761895        1.000000        0.00000000        0.00000000        0.00000000
      62         -1.761602        1.000000        0.00000000        0.00000000        0.00000000
      63         -1.761509        1.000000        0.00000000        0.00000000        0.00000000
      64         -1.761377        1.000000        0.00000000        0.00000000        0.00000000
      65         -1.761171        1.000000        0.00000000        0.00000000        0.00000000
      66         -1.760998        1.000000        0.00000000        0.00000000        0.00000000
      67         -1.760877        1.000000        0.00000000        0.00000000        0.00000000
      68         -1.760806        1.000000        0.00000000        0.00000000        0.00000000
      69         -1.760684        1.000000        0.00000000        0.00000000        0.00000000
      70         -1.760645        1.000000        0.00000000        0.00000000        0.00000000
      71         -1.760442        1.000000        0.00000000        0.00000000        0.00000000
      72         -1.760098        1.000000        0.00000000        0.00000000        0.00000000
      73         -1.759962        1.000000        0.00000000        0.00000000        0.00000000
      74         -1.759824        1.000000        0.00000000        0.00000000        0.00000000
      75         -1.759787        1.000000        0.00000000        0.00000000        0.00000000
      76         -1.759638        1.000000        0.00000000        0.00000000        0.00000000
      77         -1.759601        1.000000        0.00000000        0.00000000        0.00000000
      78         -1.759512        1.000000        0.00000000        0.00000000        0.00000000
      79         -1.759406        1.000000        0.00000000        0.00000000        0.00000000
      80         -1.759287        1.000000        0.00000000        0.00000000        0.00000000
      81         -1.759176        1.000000        0.00000000        0.00000000        0.00000000
      82         -1.758872        1.000000        0.00000000        0.00000000        0.00000000
      83         -1.758781        1.000000        0.00000000        0.00000000        0.00000000
      84         -1.758726        1.000000        0.00000000        0.00000000        0.00000000
      85         -1.758559        1.000000        0.00000000        0.00000000        0.00000000
      86         -1.758378        1.000000        0.00000000        0.00000000        0.00000000
      87         -1.758294        1.000000        0.00000000        0.00000000        0.00000000
      88         -1.758087        1.000000        0.00000000        0.00000000        0.00000000
      89         -1.757987        1.000000        0.00000000        0.00000000        0.00000000
      90         -1.757734        1.000000        0.00000000        0.00000000        0.00000000
      91         -1.757649        1.000000        0.00000000        0.00000000        0.00000000
      92         -1.757529        1.000000        0.00000000        0.00000000        0.00000000
      93         -1.757404        1.000000        0.00000000        0.00000000        0.00000000
      94         -1.757324        1.000000        0.00000000        0.00000000        0.00000000
      95         -1.757187        1.000000        0.00000000        0.00000000        0.00000000
      96         -1.757137        1.000000        0.00000000        0.00000000        0.00000000
      97         -1.756770        1.000000        0.00000000        0.00000000        0.00000000
      98         -1.756598        1.000000        0.00000000        0.00000000        0.00000000
      99         -1.756513        1.000000        0.00000000        0.00000000        0.00000000
     100         -1.756186        1.000000        0.00000000        0.00000000        0.00000000
     101         -1.755847        1.000000        0.00000000        0.00000000        0.00000000
     102         -1.755716        1.000000        0.00000000        0.00000000        0.00000000
     103         -1.755306        1.000000        0.00000000        0.00000000        0.00000000
     104         -1.755052        1.000000        0.00000000        0.00000000        0.00000000
     105         -1.754765        1.000000        0.00000000        0.00000000        0.00000000
     106         -1.754094        1.000000        0.00000000        0.00000000        0.00000000
     107         -1.753681        1.000000        0.00000000        0.00000000        0.00000000
     108         -1.753548        1.000000        0.00000000        0.00000000        0.00000000
     109         -1.753256        1.000000        0.00000000        0.00000000        0.00000000
     110         -1.752675        1.000000        0.00000000        0.00000000        0.00000000
     111         -1.752502        1.000000        0.00000000        0.00000000        0.00000000
     112         -1.752253        1.000000        0.00000000        0.00000000        0.00000000
     113         -1.751643        1.000000        0.00000000        0.00000000        0.00000000
     114         -1.751317        1.000000        0.00000000        0.00000000        0.00000000
     115         -1.749193        1.000000        0.00000000        0.00000000        0.00000000
     116         -1.748137        1.000000        0.00000000        0.00000000        0.00000000
     117         -1.747283        1.000000        0.00000000        0.00000000        0.00000000
     118         -1.745962        1.000000        0.00000000        0.00000000        0.00000000
     119         -1.745880        1.000000        0.00000000        0.00000000        0.00000000
     120         -1.744143        1.000000        0.00000000        0.00000000        0.00000000
     121         -1.145318        1.000000        0.00167471        0.00009269        0.00005437
     122         -1.141162        1.000000        0.00000328        0.00003774        0.00000172
     123         -1.135518        1.000000        0.00347589        0.00046011        0.00009413
     124         -1.134356        1.000000        0.00330176        0.00034021        0.00006377
     125         -1.132797        1.000000        0.00234583        0.00013966        0.00005979
     126         -1.131675        1.000000        0.00089156        0.00005850        0.00001751
     127         -1.130657        1.000000        0.00339714        0.00043491        0.00008768
     128         -1.129329        1.000000        0.00507408        0.00079786        0.00011633
     129         -1.127805        1.000000        0.01290465        0.00086192        0.00028394
     130         -1.126970        1.000000        0.00605818        0.00032190        0.00007292
     131         -1.125100        1.000000        0.00355151        0.00115583        0.00009513
     132         -1.124640        1.000000        0.02478283        0.00149657        0.00044813
     133         -1.122028        1.000000        0.00236413        0.00011868        0.00006359
     134         -1.120887        1.000000        0.00068899        0.00013814        0.00001280
     135         -1.119308        1.000000        0.00041331        0.00010759        0.00001038
     136         -1.118408        1.000000        0.00327797        0.00017626        0.00004439
     137         -1.117769        1.000000        0.00116879        0.00009347        0.00002357
     138         -1.116570        1.000000        0.02838894        0.00111606        0.00029693
     139         -1.115096        1.000000        0.00050621        0.00010172        0.00001118
     140         -1.114402        1.000000        0.00063210        0.00006212        0.00000492
     141         -1.114039        1.000000        0.01808369        0.00069629        0.00013135
     142         -1.112381        1.000000        0.00055266        0.00007507        0.00000388
     143         -1.111588        1.000000        0.00450623        0.00020649        0.00003132
     144         -1.111356        1.000000        0.00004278        0.00031241        0.00000764
     145         -1.110913        1.000000        0.00358275        0.00014311        0.00002753
     146         -1.109631        1.000000        0.00960371        0.00056038        0.00006844
     147         -1.107338        1.000000        0.00370305        0.00017740        0.00003355
     148         -1.107163        1.000000        0.00398677        0.00069724        0.00002867
     149         -1.106911        1.000000        0.00438747        0.00036027        0.00003891
     150         -1.105904        1.000000        0.00057647        0.00039333        0.00001561
     151         -1.104513        1.000000        0.00000518        0.00010365        0.00000541
     152         -1.103753        1.000000        0.00068230        0.00002669        0.00000570
     153         -1.103233        1.000000        0.00207453        0.00132053        0.00006491
     154         -1.101116        1.000000        0.00191025        0.00150913        0.00007356
     155         -1.099878        1.000000        0.01004862        0.00121059        0.00009314
     156         -1.099527        1.000000        0.00125923        0.00081683        0.00005071
     157         -1.099360        1.000000        0.00080770        0.00006897        0.00001128
     158         -1.097449        1.000000        0.00165834        0.00017371        0.00000987
     159         -1.097246        1.000000        0.00078670        0.00041053        0.00003298
     160         -1.096336        1.000000        0.00123258        0.00014784        0.00002264
     161         -1.095776        1.000000        0.00003319        0.00004624        0.00000820
     162         -1.094258        1.000000        0.00127503        0.00011988        0.00001813
     163         -1.093701        1.000000        0.00925761        0.00060731        0.00006302
     164         -1.093107        1.000000        0.00002154        0.00085937        0.00006830
     165         -1.091600        1.000000        0.00030203        0.00006801        0.00003198
     166         -1.090890        1.000000        0.00040215        0.00005505        0.00001988
     167         -1.090283        1.000000        0.00048701        0.00028474        0.00001467
     168         -1.089378        1.000000        0.00590441        0.00020974        0.00004343
     169         -1.088506        1.000000        0.00580570        0.00031345        0.00001068
     170         -1.086931        1.000000        0.00000752        0.00017932        0.00002133
     171         -1.086367        1.000000        0.01039262        0.00026627        0.00002935
     172         -1.085327        1.000000        0.00443427        0.00049060        0.00008109
     173         -1.084766        1.000000        0.00128311        0.00007362        0.00000291
     174         -1.083961        1.000000        0.00018253        0.00004588        0.00000633
     175         -1.082920        1.000000        0.00334612        0.00057703        0.00001135
     176         -1.081700        1.000000        0.00220232        0.00012221        0.00000392
     177         -1.081031        1.000000        0.00107256        0.00024270        0.00002009
     178         -1.080558        1.000000        0.00022911        0.00065633        0.00005647
     179         -1.080415        1.000000        0.01157469        0.00034478        0.00002063
     180         -1.080047        1.000000        0.00211530        0.00058060        0.00006083
     181         -1.077309        1.000000        0.00221968        0.00005807        0.00001393
     182         -1.076601        1.000000        0.00100386        0.00051813        0.00002145
     183         -1.076342        1.000000        0.00198665        0.00023518        0.00001268
     184         -1.076154        1.000000        0.00369415        0.00008411        0.00001716
     185         -1.075469        1.000000        0.00435770        0.00019375        0.00002988
     186         -1.074904        1.000000        0.01179326        0.00030059        0.00002611
     187         -1.074160        1.000000        0.00683154        0.00029775        0.00002423
     188         -1.073364        1.000000        0.00307418        0.00020866        0.00002149
     189         -1.071841        1.000000        0.00133851        0.00016997        0.00000707
     190         -1.071436        1.000000        0.00765731        0.00024836        0.00003211
     191         -1.070358        1.000000        0.00009485        0.00001200        0.00001066
     192         -1.070160        1.000000        0.00837233        0.00027238        0.00000998
     193         -1.069551        1.000000        0.01299475        0.00038743        0.00001206
     194         -1.069042        1.000000        0.00156026        0.00003920        0.00001426
     195         -1.068018        1.000000        0.01654631        0.00034973        0.00004228
     196         -1.067683        1.000000        0.00508057        0.00015172        0.00001239
     197         -1.067094        1.000000        0.00008284        0.00000290        0.00000133
     198         -1.066200        1.000000        0.00041019        0.00001352        0.00001358
     199         -1.065105        1.000000        0.00079953        0.00001157        0.00002114
     200         -1.064600        1.000000        0.00775700        0.00072640        0.00016455
     201         -1.063825        1.000000        0.00033542        0.00001560        0.00001770
     202         -1.063672        1.000000        0.00011654        0.00002133        0.00001741
     203         -1.062915        1.000000        0.00605794        0.00026437        0.00005957
     204         -1.062259        1.000000        0.00660136        0.00010526        0.00001926
     205         -1.061986        1.000000        0.00062663        0.00001680        0.00001116
     206         -1.060822        1.000000        0.00068053        0.00001508        0.00000820
     207         -1.060230        1.000000        0.00464286        0.00039322        0.00024780
     208         -1.059971        1.000000        0.01286568        0.00021712        0.00001448
     209         -1.059399        1.000000        0.00113683        0.00003595        0.00003938
     210         -1.058798        1.000000        0.00284734        0.00007679        0.00001430
     211         -1.058498        1.000000        0.01744477        0.00029907        0.00001504
     212         -1.057049        1.000000        0.00248368        0.00006793        0.00002089
     213         -1.056896        1.000000        0.00801789        0.00014131        0.00000974
     214         -1.056403        1.000000        0.00186338        0.00006609        0.00000408
     215         -1.056079        1.000000        0.00064102        0.00004377        0.00000505
     216         -1.055624        1.000000        0.00360007        0.00006689        0.00000642
     217         -1.055288        1.000000        0.00051697        0.00004008        0.00000619
     218         -1.054828        1.000000        0.00126956        0.00014956        0.00001318
     219         -1.054413        1.000000        0.00564872        0.00023492        0.00001465
     220         -1.053990        1.000000        0.00003510        0.00000579        0.00000714
     221         -1.053598        1.000000        0.00110619        0.00003428        0.00001115
     222         -1.053387        1.000000        0.00000163        0.00011763        0.00001120
     223         -1.052953        1.000000        0.01177558        0.00034852        0.00001791
     224         -1.052779        1.000000        0.00463378        0.00011298        0.00001223
     225         -1.052376        1.000000        0.00143438        0.00004077        0.00000699
     226         -1.052297        1.000000        0.00076614        0.00001539        0.00000397
     227         -1.051819        1.000000        0.01397286        0.00045916        0.00004447
     228         -1.051536        1.000000        0.00644424        0.00012911        0.00001261
     229         -1.051232        1.000000        0.02255634        0.00042821        0.00005919
     230         -1.050581        1.000000        0.01294593        0.00032018        0.00004872
     231         -1.050140        1.000000        0.00805927        0.00022865        0.00004190
     232         -1.049834        1.000000        0.00353464        0.00006610        0.00000671
     233         -1.049588        1.000000        0.00001291        0.00000150        0.00000066
     234         -1.049506        1.000000        0.00026980        0.00000827        0.00000493
     235         -1.048565        1.000000        0.00008122        0.00000536        0.00001393
     236         -1.048103        1.000000        0.00000071        0.00000676        0.00000988
     237         -1.048023        1.000000        0.00101232        0.00007458        0.00002116
     238         -1.047651        1.000000        0.00040760        0.00004290        0.00002504
     239         -1.047305        1.000000        0.00102665        0.00009928        0.00005092
     240         -1.046707        1.000000        0.00041013        0.00001315        0.00000687
     241         -1.046592        1.000000        0.00296829        0.00006691        0.00002491
     242         -1.046281        1.000000        0.00011744        0.00002025        0.00000444
     243         -1.045974        1.000000        0.00590515        0.00015441        0.00003816
     244         -1.045866        1.000000        0.00258656        0.00007244        0.00001632
     245         -1.045771        1.000000        0.00132953        0.00002492        0.00000354
     246         -1.045301        1.000000        0.00402687        0.00034721        0.00030448
     247         -1.045020        1.000000        0.00001654        0.00001769        0.00001376
     248         -1.043956        1.000000        0.00023942        0.00001513        0.00000811
     249         -1.043818        1.000000        0.00225607        0.00018392        0.00007344
     250         -1.043244        1.000000        0.00538098        0.00020113        0.00017156
     251         -1.043119        1.000000        0.00031895        0.00001809        0.00000818
     252         -1.042993        1.000000        0.00065534        0.00001306        0.00000316
     253         -1.042515        1.000000        0.00210790        0.00010189        0.00004166
     254         -1.041302        1.000000        0.00003471        0.00000431        0.00000564
     255         -1.041116        1.000000        0.00015911        0.00001666        0.00001567
     256         -1.040594        1.000000        0.00026120        0.00001912        0.00000324
     257         -1.040094        1.000000        0.00003549        0.00001421        0.00000346
     258         -1.039599        1.000000        0.00004169        0.00001104        0.00001489
     259         -1.039408        1.000000        0.00054815        0.00001781        0.00000201
     260         -1.038970        1.000000        0.00036694        0.00000913        0.00000347
     261         -1.038561        1.000000        0.00000817        0.00000486        0.00000231
     262         -1.038022        1.000000        0.00000042        0.00000045        0.00000058
     263         -1.037841        1.000000        0.00783901        0.00042883        0.00019698
     264         -1.036991        1.000000        0.00000341        0.00002023        0.00001253
     265         -1.036854        1.000000        0.00015917        0.00005426        0.00003792
     266         -1.035910        1.000000        0.00000319        0.00000183        0.00000238
     267         -1.035115        1.000000        0.00000043        0.00003757        0.00001433
     268         -1.034275        1.000000        0.00006205        0.00000746        0.00000430
     269         -1.033697        1.000000        0.00001658        0.00000155        0.00000180
     270         -1.033444        1.000000        0.00005151        0.00001368        0.00000338
     271         -1.033385        1.000000        0.00000216        0.00000281        0.00000265
     272         -1.033262        1.000000        0.00000566        0.00000255        0.00000087
     273         -1.032346        1.000000        0.00000248        0.00000113        0.00000083
     274         -1.031626        1.000000        0.00000003        0.00000022        0.00000001
     275         -1.030746        1.000000        0.00000730        0.00000028        0.00000016
     276         -1.029780        1.000000        0.00000024        0.00000040        0.00000025
     277         -1.028980        1.000000        0.00001305        0.00000061        0.00000023
     278         -1.027492        1.000000        0.00052640        0.00002809        0.00002335
     279         -1.025795        1.000000        0.00803891        0.00064982        0.00060135
     280         -1.023990        1.000000        0.00011711        0.00000904        0.00000709
     281         -1.022755        1.000000        0.00000019        0.00000035        0.00000095
     282         -1.019871        1.000000        0.00000007        0.00000000        0.00000000
     283         -1.017737        1.000000        0.00006404        0.00001382        0.00001519
     284         -1.012409        1.000000        0.00000005        0.00000001        0.00000000
     285         -1.010522        1.000000        0.00000004        0.00000008        0.00000002
     286         -0.880961        1.000000        0.00000008        0.00000003        0.00000000
     287         -0.861761        1.000000        0.00000002        0.00000005        0.00000000
     288         -0.860652        1.000000        0.00000002        0.00000001        0.00000000
     289         -0.854811        1.000000        0.00000000        0.00000000        0.00000000
     290         -0.853189        1.000000        0.00000000        0.00000000        0.00000000
     291         -0.838407        1.000000        0.00000000        0.00000001        0.00000000
     292         -0.837131        1.000000        0.00000000        0.00000001        0.00000000
     293         -0.835422        1.000000        0.00000000        0.00000001        0.00000000
     294         -0.832873        1.000000        0.00000000        0.00000000        0.00000000
     295         -0.813092        1.000000        0.00000000        0.00000000        0.00000000
     296         -0.811309        1.000000        0.00000000        0.00000000        0.00000000
     297         -0.805633        1.000000        0.00000011        0.00000005        0.00000000
     298         -0.800994        1.000000        0.00000000        0.00000002        0.00000000
     299         -0.798544        1.000000        0.00000001        0.00000001        0.00000000
     300         -0.797176        1.000000        0.00000000        0.00000000        0.00000000
     301         -0.796065        1.000000        0.00000000        0.00000000        0.00000000
     302         -0.795247        1.000000        0.00000000        0.00000000        0.00000000
     303         -0.794465        1.000000        0.00000000        0.00000000        0.00000000
     304         -0.792558        1.000000        0.00000000        0.00000000        0.00000000
     305         -0.791532        1.000000        0.00000000        0.00000000        0.00000000
     306         -0.790931        1.000000        0.00000000        0.00000000        0.00000000
     307         -0.790366        1.000000        0.00000000        0.00000000        0.00000000