# Projected DOS for list 73 of 1 atoms, at iteration step i = 0, E(Fermi) =    -0.237583 a.u.
#     MO Eigenvalue [a.u.]      Occupation                 s                 p                 d
       1         -3.115895        1.000000        0.00000000        0.00000000        0.00000000
       2         -3.112717        1.000000        0.00000001        0.00000001        0.00000000
       3         -3.112103        1.000000        0.00000001        0.00000001        0.00000000
       4         -3.111180        1.000000        0.00000000        0.00000001        0.00000000
       5         -3.110810        1.000000        0.00000000        0.00000000        0.00000000
       6         -3.110575        1.000000        0.00000002        0.00000002        0.00000000
       7         -3.110067        1.000000        0.00000001        0.00000001        0.00000000
       8         -3.109817        1.000000        0.00000006        0.00000006        0.00000001
       9         -3.109660        1.000000        0.00000001        0.00000002        0.00000000
      10         -3.108831        1.000000        0.00000015        0.00000011        0.00000001
      11         -3.108678        1.000000        0.00000002        0.00000007        0.00000000
      12         -3.108578        1.000000        0.00000000        0.00000000        0.00000000
      13         -3.108350        1.000000        0.00000005        0.00000011        0.00000001
      14         -3.108163        1.000000        0.00000004        0.00000003        0.00000001
      15         -3.107948        1.000000        0.00000003        0.00000009        0.00000001
      16         -3.107865        1.000000        0.00000000        0.00000001        0.00000000
      17         -3.107703        1.000000        0.00000000        0.00000000        0.00000000
      18         -3.107683        1.000000        0.00000000        0.00000001        0.00000000
      19         -3.107641        1.000000        0.00000000        0.00000001        0.00000000
      20         -3.107604        1.000000        0.00000000        0.00000000        0.00000000
      21         -3.107402        1.000000        0.00000001        0.00000005        0.00000000
      22         -3.107115        1.000000        0.00000002        0.00000002        0.00000000
      23         -3.107013        1.000000        0.00000000        0.00000000        0.00000000
      24         -3.106750        1.000000        0.00000000        0.00000000        0.00000000
      25         -3.106619        1.000000        0.00000001        0.00000001        0.00000000
      26         -3.106567        1.000000        0.00000000        0.00000000        0.00000000
      27         -3.106546        1.000000        0.00000000        0.00000000        0.00000000
      28         -3.106258        1.000000        0.00000000        0.00000000        0.00000000
      29         -3.106103        1.000000        0.00000000        0.00000001        0.00000000
      30         -3.104674        1.000000        0.00000001        0.00000002        0.00000000
      31         -1.775522        1.000000        0.00000000        0.00000000        0.00000000
      32         -1.773964        1.000000        0.00000000        0.00000000        0.00000000
      33         -1.773454        1.000000        0.00000000        0.00000000        0.00000000
      34         -1.773008        1.000000        0.00000000        0.00000000        0.00000000
      35         -1.772581        1.000000        0.00000000        0.00000000        0.00000000
      36         -1.772213        1.000000        0.00000000        0.00000000        0.00000000
      37         -1.771852        1.000000        0.00000000        0.00000000        0.00000000
      38         -1.771444        1.000000        0.00000000        0.00000000        0.00000000
      39         -1.771233        1.000000        0.00000000        0.00000000        0.00000000
      40         -1.770977        1.000000        0.00000000        0.00000000        0.00000000
      41         -1.770760        1.000000        0.00000000        0.00000000        0.00000000
      42         -1.770111        1.000000        0.00000000        0.00000000        0.00000000
      43         -1.770034        1.000000        0.00000000        0.00000000        0.00000000
      44         -1.769495        1.000000        0.00000000        0.00000000        0.00000000
      45         -1.769421        1.000000        0.00000000        0.00000000        0.00000000
      46         -1.769063        1.000000        0.00000000        0.00000000        0.00000000
      47         -1.768532        1.000000        0.00000000        0.00000000        0.00000000
      48         -1.768412        1.000000        0.00000000        0.00000000        0.00000000
      49         -1.767811        1.000000        0.00000000        0.00000000        0.00000000
      50         -1.767614        1.000000        0.00000000        0.00000000        0.00000000
      51         -1.767477        1.000000        0.00000000        0.00000000        0.00000000
      52         -1.765531        1.000000        0.00000000        0.00000000        0.00000000
      53         -1.765088        1.000000        0.00000000        0.00000000        0.00000000
      54         -1.764557        1.000000        0.00000000        0.00000000        0.00000000
      55         -1.763772        1.000000        0.00000000        0.00000000        0.00000000
      56         -1.763328        1.000000        0.00000000        0.00000000        0.00000000
      57         -1.762925        1.000000        0.00000000        0.00000000        0.00000000
      58         -1.762506        1.000000        0.00000000        0.00000000        0.00000000
      59         -1.762119        1.000000        0.00000000        0.00000000        0.00000000
      60         -1.762053        1.000000        0.00000000        0.00000000        0.00000000
      61         -1.761895        1.000000        0.00000000        0.00000000        0.00000000
      62         -1.761602        1.000000        0.00000000        0.00000000        0.00000000
      63         -1.761509        1.000000        0.00000000        0.00000000        0.00000000
      64         -1.761377        1.000000        0.00000000        0.00000000        0.00000000
      65         -1.761171        1.000000        0.00000000        0.00000000        0.00000000
      66         -1.760998        1.000000        0.00000000        0.00000000        0.00000000
      67         -1.760877        1.000000        0.00000000        0.00000000        0.00000000
      68         -1.760806        1.000000        0.00000000        0.00000000        0.00000000
      69         -1.760684        1.000000        0.00000000        0.00000000        0.00000000
      70         -1.760645        1.000000        0.00000000        0.00000000        0.00000000
      71         -1.760442        1.000000        0.00000000        0.00000000        0.00000000
      72         -1.760098        1.000000        0.00000000        0.00000000        0.00000000
      73         -1.759962        1.000000        0.00000000        0.00000000        0.00000000
      74         -1.759824        1.000000        0.00000000        0.00000000        0.00000000
      75         -1.759787        1.000000        0.00000000        0.00000000        0.00000000
      76         -1.759638        1.000000        0.00000000        0.00000000        0.00000000
      77         -1.759601        1.000000        0.00000000        0.00000000        0.00000000
      78         -1.759512        1.000000        0.00000000        0.00000000        0.00000000
      79         -1.759406        1.000000        0.00000000        0.00000000        0.00000000
      80         -1.759287        1.000000        0.00000000        0.00000000        0.00000000
      81         -1.759176        1.000000        0.00000000        0.00000000        0.00000000
      82         -1.758872        1.000000        0.00000000        0.00000000        0.00000000
      83         -1.758781        1.000000        0.00000000        0.00000000        0.00000000
      84         -1.758726        1.000000        0.00000000        0.00000000        0.00000000
      85         -1.758559        1.000000        0.00000000        0.00000000        0.00000000
      86         -1.758378        1.000000        0.00000000        0.00000000        0.00000000
      87         -1.758294        1.000000        0.00000000        0.00000000        0.00000000
      88         -1.758087        1.000000        0.00000000        0.00000000        0.00000000
      89         -1.757987        1.000000        0.00000000        0.00000000        0.00000000
      90         -1.757734        1.000000        0.00000000        0.00000000        0.00000000
      91         -1.757649        1.000000        0.00000000        0.00000000        0.00000000
      92         -1.757529        1.000000        0.00000000        0.00000000        0.00000000
      93         -1.757404        1.000000        0.00000000        0.00000000        0.00000000
      94         -1.757324        1.000000        0.00000000        0.00000000        0.00000000
      95         -1.757187        1.000000        0.00000000        0.00000000        0.00000000
      96         -1.757137        1.000000        0.00000000        0.00000000        0.00000000
      97         -1.756770        1.000000        0.00000000        0.00000000        0.00000000
      98         -1.756598        1.000000        0.00000000        0.00000000        0.00000000
      99         -1.756513        1.000000        0.00000000        0.00000000        0.00000000
     100         -1.756186        1.000000        0.00000000        0.00000000        0.00000000
     101         -1.755847        1.000000        0.00000000        0.00000000        0.00000000
     102         -1.755716        1.000000        0.00000000        0.00000000        0.00000000
     103         -1.755306        1.000000        0.00000000        0.00000000        0.00000000
     104         -1.755052        1.000000        0.00000000        0.00000000        0.00000000
     105         -1.754765        1.000000        0.00000000        0.00000000        0.00000000
     106         -1.754094        1.000000        0.00000000        0.00000000        0.00000000
     107         -1.753681        1.000000        0.00000000        0.00000000        0.00000000
     108         -1.753548        1.000000        0.00000000        0.00000000        0.00000000
     109         -1.753256        1.000000        0.00000000        0.00000000        0.00000000
     110         -1.752675        1.000000        0.00000000        0.00000000        0.00000000
     111         -1.752502        1.000000        0.00000000        0.00000000        0.00000000
     112         -1.752253        1.000000        0.00000000        0.00000000        0.00000000
     113         -1.751643        1.000000        0.00000000        0.00000000        0.00000000
     114         -1.751317        1.000000        0.00000000        0.00000000        0.00000000
     115         -1.749193        1.000000        0.00000000        0.00000000        0.00000000
     116         -1.748137        1.000000        0.00000000        0.00000000        0.00000000
     117         -1.747283        1.000000        0.00000000        0.00000000        0.00000000
     118         -1.745962        1.000000        0.00000000        0.00000000        0.00000000
     119         -1.745880        1.000000        0.00000000        0.00000000        0.00000000
     120         -1.744143        1.000000        0.00000000        0.00000000        0.00000000
     121         -1.145318        1.000000        0.00013890        0.00004562        0.00000689
     122         -1.141162        1.000000        0.00009897        0.00005215        0.00000364
     123         -1.135518        1.000000        0.00783419        0.00590147        0.00160234
     124         -1.134356        1.000000        0.00006395        0.00008500        0.00003895
     125         -1.132797        1.000000        0.00110594        0.00058400        0.00022392
     126         -1.131675        1.000000        0.00447385        0.00207114        0.00061663
     127         -1.130657        1.000000        0.00082486        0.00048261        0.00013643
     128         -1.129329        1.000000        0.00343983        0.00137766        0.00033004
     129         -1.127805        1.000000        0.00665323        0.00548419        0.00187648
     130         -1.126970        1.000000        0.00194291        0.00388512        0.00127398
     131         -1.125100        1.000000        0.00806484        0.00493324        0.00184868
     132         -1.124640        1.000000        0.00018694        0.00029692        0.00012301
     133         -1.122028        1.000000        0.00051529        0.00058020        0.00023580
     134         -1.120887        1.000000        0.00001079        0.00079444        0.00018494
     135         -1.119308        1.000000        0.00831032        0.00376270        0.00047682
     136         -1.118408        1.000000        0.00006162        0.00078870        0.00021369
     137         -1.117769        1.000000        0.00254699        0.00059977        0.00009842
     138         -1.116570        1.000000        0.00003472        0.00040093        0.00008890
     139         -1.115096        1.000000        0.00016178        0.00104491        0.00030216
     140         -1.114402        1.000000        0.00638413        0.00468075        0.00097633
     141         -1.114039        1.000000        0.00093167        0.00370208        0.00084666
     142         -1.112381        1.000000        0.00000345        0.00033772        0.00014784
     143         -1.111588        1.000000        0.00493172        0.00126399        0.00019396
     144         -1.111356        1.000000        0.00502962        0.00400400        0.00094002
     145         -1.110913        1.000000        0.00408438        0.00168339        0.00043421
     146         -1.109631        1.000000        0.00640349        0.00407196        0.00123196
     147         -1.107338        1.000000        0.00037278        0.00124965        0.00029209
     148         -1.107163        1.000000        0.00387208        0.00204783        0.00036567
     149         -1.106911        1.000000        0.00043211        0.00239710        0.00072376
     150         -1.105904        1.000000        0.00006555        0.00079113        0.00023581
     151         -1.104513        1.000000        0.00066831        0.00053079        0.00022649
     152         -1.103753        1.000000        0.00028141        0.00040832        0.00012033
     153         -1.103233        1.000000        0.00000696        0.00111366        0.00039339
     154         -1.101116        1.000000        0.00057421        0.00369564        0.00160641
     155         -1.099878        1.000000        0.00609119        0.00087513        0.00051397
     156         -1.099527        1.000000        0.00009302        0.00038602        0.00011963
     157         -1.099360        1.000000        0.00077776        0.00022872        0.00005033
     158         -1.097449        1.000000        0.00312863        0.00359423        0.00102807
     159         -1.097246        1.000000        0.00044977        0.00059606        0.00022033
     160         -1.096336        1.000000        0.00011916        0.00236676        0.00092064
     161         -1.095776        1.000000        0.00016961        0.00000887        0.00000566
     162         -1.094258        1.000000        0.00609325        0.00084276        0.00015762
     163         -1.093701        1.000000        0.00007277        0.00089102        0.00028714
     164         -1.093107        1.000000        0.00017393        0.00005927        0.00001647
     165         -1.091600        1.000000        0.00010479        0.00022845        0.00008532
     166         -1.090890        1.000000        0.00093684        0.00870649        0.00318635
     167         -1.090283        1.000000        0.00117782        0.00063760        0.00044092
     168         -1.089378        1.000000        0.00009245        0.00139590        0.00049897
     169         -1.088506        1.000000        0.00012230        0.00276981        0.00115047
     170         -1.086931        1.000000        0.00021227        0.00053657        0.00018841
     171         -1.086367        1.000000        0.00012731        0.00040910        0.00025926
     172         -1.085327        1.000000        0.00001712        0.00597804        0.00282970
     173         -1.084766        1.000000        0.00006946        0.00303348        0.00105149
     174         -1.083961        1.000000        0.00110008        0.00072549        0.00044215
     175         -1.082920        1.000000        0.00039799        0.00133819        0.00058116
     176         -1.081700        1.000000        0.00146879        0.00109364        0.00039257
     177         -1.081031        1.000000        0.00009629        0.00122844        0.00044271
     178         -1.080558        1.000000        0.00121410        0.00427208        0.00240181
     179         -1.080415        1.000000        0.00607959        0.00228377        0.00066567
     180         -1.080047        1.000000        0.00017283        0.00235080        0.00096044
     181         -1.077309        1.000000        0.00057328        0.00034580        0.00014711
     182         -1.076601        1.000000        0.00005787        0.00161971        0.00081672
     183         -1.076342        1.000000        0.00067198        0.00156162        0.00064598
     184         -1.076154        1.000000        0.00032808        0.00035087        0.00010142
     185         -1.075469        1.000000        0.00086099        0.00069616        0.00022709
     186         -1.074904        1.000000        0.00038519        0.00102592        0.00036389
     187         -1.074160        1.000000        0.00019476        0.00172925        0.00064435
     188         -1.073364        1.000000        0.00113960        0.00089891        0.00056248
     189         -1.071841        1.000000        0.00152464        0.00121372        0.00069021
     190         -1.071436        1.000000        0.00066993        0.00051239        0.00033641
     191         -1.070358        1.000000        0.00000590        0.00023317        0.00008497
     192         -1.070160        1.000000        0.00002702        0.00344410        0.00159980
     193         -1.069551        1.000000        0.00005060        0.00429821        0.00213247
     194         -1.069042        1.000000        0.00050907        0.00012371        0.00010758
     195         -1.068018        1.000000        0.00047139        0.00646913        0.00356776
     196         -1.067683        1.000000        0.00001122        0.00088336        0.00046089
     197         -1.067094        1.000000        0.00006833        0.00299881        0.00108393
     198         -1.066200        1.000000        0.00021961        0.00123283        0.00042208
     199         -1.065105        1.000000        0.00001595        0.00058711        0.00020319
     200         -1.064600        1.000000        0.00000274        0.00046715        0.00028572
     201         -1.063825        1.000000        0.00024444        0.00132107        0.00042876
     202         -1.063672        1.000000        0.00035762        0.00258293        0.00071012
     203         -1.062915        1.000000        0.00103709        0.00699274        0.00248300
     204         -1.062259        1.000000        0.00024197        0.00130246        0.00047250
     205         -1.061986        1.000000        0.00003381        0.00143139        0.00045454
     206         -1.060822        1.000000        0.00013718        0.00089099        0.00046053
     207         -1.060230        1.000000        0.00127090        0.01091314        0.00403290
     208         -1.059971        1.000000        0.00036550        0.00456571        0.00167076
     209         -1.059399        1.000000        0.00000470        0.00093384        0.00038819
     210         -1.058798        1.000000        0.00036256        0.00145931        0.00043784
     211         -1.058498        1.000000        0.00109546        0.00451480        0.00149826
     212         -1.057049        1.000000        0.00179995        0.01158491        0.00436779
     213         -1.056896        1.000000        0.00042519        0.00243745        0.00093829
     214         -1.056403        1.000000        0.00087067        0.00652218        0.00302892
     215         -1.056079        1.000000        0.00000193        0.00006971        0.00002462
     216         -1.055624        1.000000        0.00004850        0.00129181        0.00074006
     217         -1.055288        1.000000        0.00004413        0.00015103        0.00008932
     218         -1.054828        1.000000        0.00002966        0.00193878        0.00097075
     219         -1.054413        1.000000        0.00003215        0.00389836        0.00209326
     220         -1.053990        1.000000        0.00008705        0.00293098        0.00123216
     221         -1.053598        1.000000        0.00000861        0.00096753        0.00054832
     222         -1.053387        1.000000        0.00004244        0.00110407        0.00061891
     223         -1.052953        1.000000        0.00000301        0.00025110        0.00009327
     224         -1.052779        1.000000        0.00003677        0.00132440        0.00068317
     225         -1.052376        1.000000        0.00000559        0.00097118        0.00047111
     226         -1.052297        1.000000        0.00001673        0.00059052        0.00022284
     227         -1.051819        1.000000        0.00015683        0.00188871        0.00063181
     228         -1.051536        1.000000        0.00007941        0.00999261        0.00454774
     229         -1.051232        1.000000        0.00003838        0.00073611        0.00035845
     230         -1.050581        1.000000        0.00038098        0.00269753        0.00091799
     231         -1.050140        1.000000        0.00157823        0.02221509        0.00934869
     232         -1.049834        1.000000        0.00000915        0.00006481        0.00002946
     233         -1.049588        1.000000        0.00000434        0.00026419        0.00014679
     234         -1.049506        1.000000        0.00000033        0.00013978        0.00007358
     235         -1.048565        1.000000        0.00004379        0.00145864        0.00057534
     236         -1.048103        1.000000        0.00028234        0.00865341        0.00397824
     237         -1.048023        1.000000        0.00007853        0.00663820        0.00281847
     238         -1.047651        1.000000        0.00003586        0.00309905        0.00159551
     239         -1.047305        1.000000        0.00002776        0.00627784        0.00307555
     240         -1.046707        1.000000        0.00000671        0.00259769        0.00090643
     241         -1.046592        1.000000        0.00003062        0.00449416        0.00152933
     242         -1.046281        1.000000        0.00001317        0.00142862        0.00057689
     243         -1.045974        1.000000        0.00000696        0.00232842        0.00084457
     244         -1.045866        1.000000        0.00002467        0.00110958        0.00043878
     245         -1.045771        1.000000        0.00042220        0.00839163        0.00366415
     246         -1.045301        1.000000        0.00002202        0.00056470        0.00024641
     247         -1.045020        1.000000        0.00096735        0.01313608        0.00552111
     248         -1.043956        1.000000        0.00007940        0.00098672        0.00056870
     249         -1.043818        1.000000        0.00000769        0.00326092        0.00144548
     250         -1.043244        1.000000        0.00000907        0.00221300        0.00102402
     251         -1.043119        1.000000        0.00001154        0.00070078        0.00031295
     252         -1.042993        1.000000        0.00000873        0.00089719        0.00030522
     253         -1.042515        1.000000        0.00000713        0.00256407        0.00103605
     254         -1.041302        1.000000        0.00001343        0.00465668        0.00194845
     255         -1.041116        1.000000        0.00005349        0.01353019        0.00556545
     256         -1.040594        1.000000        0.00000677        0.00060550        0.00029590
     257         -1.040094        1.000000        0.00020567        0.01493472        0.00686393
     258         -1.039599        1.000000        0.00002354        0.00566075        0.00236948
     259         -1.039408        1.000000        0.00003632        0.01305262        0.00541694
     260         -1.038970        1.000000        0.00004099        0.00488592        0.00214393
     261         -1.038561        1.000000        0.00001645        0.00211701        0.00102037
     262         -1.038022        1.000000        0.00000251        0.00048823        0.00020380
     263         -1.037841        1.000000        0.00001341        0.00158575        0.00065903
     264         -1.036991        1.000000        0.00001472        0.00273190        0.00119690
     265         -1.036854        1.000000        0.00025321        0.00682056        0.00345136
     266         -1.035910        1.000000        0.00000498        0.00003953        0.00002291
     267         -1.035115        1.000000        0.00002224        0.00019519        0.00011159
     268         -1.034275        1.000000        0.00000929        0.00014920        0.00005889
     269         -1.033697        1.000000        0.00000371        0.00035491        0.00014927
     270         -1.033444        1.000000        0.00065947        0.00643527        0.00266295
     271         -1.033385        1.000000        0.00051427        0.00350638        0.00154083
     272         -1.033262        1.000000        0.00000214        0.00002038        0.00001151
     273         -1.032346        1.000000        0.00063674        0.03093061        0.01207159
     274         -1.031626        1.000000        0.00000368        0.00005435        0.00002747
     275         -1.030746        1.000000        0.00000000        0.00000014        0.00000009
     276         -1.029780        1.000000        0.00000108        0.00001425        0.00000537
     277         -1.028980        1.000000        0.00000293        0.00004552        0.00002043
     278         -1.027492        1.000000        0.00004199        0.00397988        0.00127576
     279         -1.025795        1.000000        0.00000217        0.00027521        0.00016921
     280         -1.023990        1.000000        0.00052946        0.01739645        0.00975152
     281         -1.022755        1.000000        0.00000210        0.00005349        0.00002697
     282         -1.019871        1.000000        0.00000001        0.00000119        0.00000053
     283         -1.017737        1.000000        0.00000291        0.00017741        0.00010780
     284         -1.012409        1.000000        0.00000009        0.00000418        0.00000225
     285         -1.010522        1.000000        0.00000001        0.00000004        0.00000003
     286         -0.880961        1.000000        0.00000053        0.00000030        0.00000003
     287         -0.861761        1.000000        0.00000009        0.00000008        0.00000002
     288         -0.860652        1.000000        0.00000005        0.00000016        0.00000002
     289         -0.854811        1.000000        0.00000003        0.00000037        0.00000002
     290         -0.853189        1.000000        0.00000006        0.00000004        0.00000001
     291         -0.838407        1.000000        0.00000005        0.00000007        0.00000001
     292         -0.837131        1.000000        0.00000000        0.00000015        0.00000001
     293         -0.835422        1.000000        0.00000000        0.00000008        0.00000001
     294         -0.832873        1.000000        0.00000002        0.00000002        0.00000000
     295         -0.813092        1.000000        0.00000000        0.00000002        0.00000000
     296         -0.811309        1.000000        0.00000000        0.00000001        0.00000000
     297         -0.805633        1.000000        0.00000045        0.00000026        0.00000002
     298         -0.800994        1.000000        0.00000021        0.00000013        0.00000002
     299         -0.798544        1.000000        0.00000013        0.00000021        0.00000003
     300         -0.797176        1.000000        0.00000007        0.00000011        0.00000001
     301         -0.796065        1.000000        0.00000003        0.00000002        0.00000001
     302         -0.795247        1.000000        0.00000001        0.00000007        0.00000001
     303         -0.794465        1.000000        0.00000000        0.00000007        0.00000001
     304         -0.792558        1.000000        0.00000000        0.00000001        0.00000000
     305         -0.791532        1.000000        0.00000006        0.00000016        0.00000002
     306         -0.790931        1.000000        0.00000003        0.00000001        0.00000001
     307         -0.790366        1.000000        0.00000003        0.00000004        0.00000000