# Projected DOS for list 190 of 1 atoms, at iteration step i = 0, E(Fermi) =    -0.237583 a.u.
#     MO Eigenvalue [a.u.]      Occupation                 s                 p                 d
       1         -3.115895        1.000000        0.00000000        0.00000000        0.00000000
       2         -3.112717        1.000000        0.00000000        0.00000000        0.00000000
       3         -3.112103        1.000000        0.00000000        0.00000000        0.00000000
       4         -3.111180        1.000000        0.00000000        0.00000000        0.00000000
       5         -3.110810        1.000000        0.00000000        0.00000000        0.00000000
       6         -3.110575        1.000000        0.00000000        0.00000000        0.00000000
       7         -3.110067        1.000000        0.00000000        0.00000000        0.00000000
       8         -3.109817        1.000000        0.00000000        0.00000000        0.00000000
       9         -3.109660        1.000000        0.00000000        0.00000000        0.00000000
      10         -3.108831        1.000000        0.00000000        0.00000000        0.00000000
      11         -3.108678        1.000000        0.00000000        0.00000000        0.00000000
      12         -3.108578        1.000000        0.00000000        0.00000000        0.00000000
      13         -3.108350        1.000000        0.00000000        0.00000000        0.00000000
      14         -3.108163        1.000000        0.00000000        0.00000000        0.00000000
      15         -3.107948        1.000000        0.00000000        0.00000000        0.00000000
      16         -3.107865        1.000000        0.00000000        0.00000000        0.00000000
      17         -3.107703        1.000000        0.00000000        0.00000000        0.00000000
      18         -3.107683        1.000000        0.00000000        0.00000000        0.00000000
      19         -3.107641        1.000000        0.00000000        0.00000000        0.00000000
      20         -3.107604        1.000000        0.00000000        0.00000000        0.00000000
      21         -3.107402        1.000000        0.00000000        0.00000000        0.00000000
      22         -3.107115        1.000000        0.00000000        0.00000000        0.00000000
      23         -3.107013        1.000000        0.00000000        0.00000000        0.00000000
      24         -3.106750        1.000000        0.00000000        0.00000000        0.00000000
      25         -3.106619        1.000000        0.00000000        0.00000000        0.00000000
      26         -3.106567        1.000000        0.00000000        0.00000000        0.00000000
      27         -3.106546        1.000000        0.00000000        0.00000000        0.00000000
      28         -3.106258        1.000000        0.00000000        0.00000000        0.00000000
      29         -3.106103        1.000000        0.00000000        0.00000000        0.00000000
      30         -3.104674        1.000000        0.00000000        0.00000000        0.00000000
      31         -1.775522        1.000000        0.00000000        0.00000000        0.00000000
      32         -1.773964        1.000000        0.00000000        0.00000000        0.00000000
      33         -1.773454        1.000000        0.00000000        0.00000000        0.00000000
      34         -1.773008        1.000000        0.00000000        0.00000000        0.00000000
      35         -1.772581        1.000000        0.00000000        0.00000000        0.00000000
      36         -1.772213        1.000000        0.00000000        0.00000000        0.00000000
      37         -1.771852        1.000000        0.00000000        0.00000000        0.00000000
      38         -1.771444        1.000000        0.00000000        0.00000000        0.00000000
      39         -1.771233        1.000000        0.00000000        0.00000000        0.00000000
      40         -1.770977        1.000000        0.00000000        0.00000000        0.00000000
      41         -1.770760        1.000000        0.00000000        0.00000000        0.00000000
      42         -1.770111        1.000000        0.00000000        0.00000000        0.00000000
      43         -1.770034        1.000000        0.00000000        0.00000000        0.00000000
      44         -1.769495        1.000000        0.00000000        0.00000000        0.00000000
      45         -1.769421        1.000000        0.00000000        0.00000000        0.00000000
      46         -1.769063        1.000000        0.00000000        0.00000000        0.00000000
      47         -1.768532        1.000000        0.00000000        0.00000000        0.00000000
      48         -1.768412        1.000000        0.00000000        0.00000000        0.00000000
      49         -1.767811        1.000000        0.00000000        0.00000000        0.00000000
      50         -1.767614        1.000000        0.00000000        0.00000000        0.00000000
      51         -1.767477        1.000000        0.00000000        0.00000000        0.00000000
      52         -1.765531        1.000000        0.00000000        0.00000000        0.00000000
      53         -1.765088        1.000000        0.00000000        0.00000000        0.00000000
      54         -1.764557        1.000000        0.00000000        0.00000000        0.00000000
      55         -1.763772        1.000000        0.00000000        0.00000000        0.00000000
      56         -1.763328        1.000000        0.00000000        0.00000000        0.00000000
      57         -1.762925        1.000000        0.00000000        0.00000000        0.00000000
      58         -1.762506        1.000000        0.00000000        0.00000000        0.00000000
      59         -1.762119        1.000000        0.00000000        0.00000000        0.00000000
      60         -1.762053        1.000000        0.00000000        0.00000000        0.00000000
      61         -1.761895        1.000000        0.00000000        0.00000000        0.00000000
      62         -1.761602        1.000000        0.00000000        0.00000000        0.00000000
      63         -1.761509        1.000000        0.00000000        0.00000000        0.00000000
      64         -1.761377        1.000000        0.00000000        0.00000000        0.00000000
      65         -1.761171        1.000000        0.00000000        0.00000000        0.00000000
      66         -1.760998        1.000000        0.00000000        0.00000000        0.00000000
      67         -1.760877        1.000000        0.00000000        0.00000000        0.00000000
      68         -1.760806        1.000000        0.00000000        0.00000000        0.00000000
      69         -1.760684        1.000000        0.00000000        0.00000000        0.00000000
      70         -1.760645        1.000000        0.00000000        0.00000000        0.00000000
      71         -1.760442        1.000000        0.00000000        0.00000000        0.00000000
      72         -1.760098        1.000000        0.00000000        0.00000000        0.00000000
      73         -1.759962        1.000000        0.00000000        0.00000000        0.00000000
      74         -1.759824        1.000000        0.00000000        0.00000000        0.00000000
      75         -1.759787        1.000000        0.00000000        0.00000000        0.00000000
      76         -1.759638        1.000000        0.00000000        0.00000000        0.00000000
      77         -1.759601        1.000000        0.00000000        0.00000000        0.00000000
      78         -1.759512        1.000000        0.00000000        0.00000000        0.00000000
      79         -1.759406        1.000000        0.00000000        0.00000000        0.00000000
      80         -1.759287        1.000000        0.00000000        0.00000000        0.00000000
      81         -1.759176        1.000000        0.00000000        0.00000000        0.00000000
      82         -1.758872        1.000000        0.00000000        0.00000000        0.00000000
      83         -1.758781        1.000000        0.00000000        0.00000000        0.00000000
      84         -1.758726        1.000000        0.00000000        0.00000000        0.00000000
      85         -1.758559        1.000000        0.00000000        0.00000000        0.00000000
      86         -1.758378        1.000000        0.00000000        0.00000000        0.00000000
      87         -1.758294        1.000000        0.00000000        0.00000000        0.00000000
      88         -1.758087        1.000000        0.00000000        0.00000000        0.00000000
      89         -1.757987        1.000000        0.00000000        0.00000000        0.00000000
      90         -1.757734        1.000000        0.00000000        0.00000000        0.00000000
      91         -1.757649        1.000000        0.00000000        0.00000000        0.00000000
      92         -1.757529        1.000000        0.00000000        0.00000000        0.00000000
      93         -1.757404        1.000000        0.00000000        0.00000000        0.00000000
      94         -1.757324        1.000000        0.00000000        0.00000000        0.00000000
      95         -1.757187        1.000000        0.00000000        0.00000000        0.00000000
      96         -1.757137        1.000000        0.00000000        0.00000000        0.00000000
      97         -1.756770        1.000000        0.00000000        0.00000000        0.00000000
      98         -1.756598        1.000000        0.00000000        0.00000000        0.00000000
      99         -1.756513        1.000000        0.00000000        0.00000000        0.00000000
     100         -1.756186        1.000000        0.00000000        0.00000000        0.00000000
     101         -1.755847        1.000000        0.00000000        0.00000000        0.00000000
     102         -1.755716        1.000000        0.00000000        0.00000000        0.00000000
     103         -1.755306        1.000000        0.00000000        0.00000000        0.00000000
     104         -1.755052        1.000000        0.00000000        0.00000000        0.00000000
     105         -1.754765        1.000000        0.00000000        0.00000000        0.00000000
     106         -1.754094        1.000000        0.00000000        0.00000000        0.00000000
     107         -1.753681        1.000000        0.00000000        0.00000000        0.00000000
     108         -1.753548        1.000000        0.00000000        0.00000000        0.00000000
     109         -1.753256        1.000000        0.00000000        0.00000000        0.00000000
     110         -1.752675        1.000000        0.00000000        0.00000000        0.00000000
     111         -1.752502        1.000000        0.00000000        0.00000000        0.00000000
     112         -1.752253        1.000000        0.00000000        0.00000000        0.00000000
     113         -1.751643        1.000000        0.00000000        0.00000000        0.00000000
     114         -1.751317        1.000000        0.00000000        0.00000000        0.00000000
     115         -1.749193        1.000000        0.00000000        0.00000000        0.00000000
     116         -1.748137        1.000000        0.00000000        0.00000000        0.00000000
     117         -1.747283        1.000000        0.00000000        0.00000000        0.00000000
     118         -1.745962        1.000000        0.00000000        0.00000000        0.00000000
     119         -1.745880        1.000000        0.00000000        0.00000000        0.00000000
     120         -1.744143        1.000000        0.00000000        0.00000000        0.00000000
     121         -1.145318        1.000000        0.00091982        0.00004959        0.00004074
     122         -1.141162        1.000000        0.00013213        0.00006377        0.00000843
     123         -1.135518        1.000000        0.00026050        0.00011980        0.00001080
     124         -1.134356        1.000000        0.00021170        0.00010326        0.00001022
     125         -1.132797        1.000000        0.00082082        0.00004302        0.00002687
     126         -1.131675        1.000000        0.00004897        0.00001897        0.00000935
     127         -1.130657        1.000000        0.00001582        0.00000574        0.00000701
     128         -1.129329        1.000000        0.00086646        0.00005973        0.00003191
     129         -1.127805        1.000000        0.00000085        0.00029744        0.00001109
     130         -1.126970        1.000000        0.00065274        0.00003162        0.00001572
     131         -1.125100        1.000000        0.00047326        0.00016506        0.00001259
     132         -1.124640        1.000000        0.00100203        0.00081891        0.00004219
     133         -1.122028        1.000000        0.00320915        0.00017554        0.00007446
     134         -1.120887        1.000000        0.00000125        0.00005006        0.00000682
     135         -1.119308        1.000000        0.00551670        0.00014020        0.00013113
     136         -1.118408        1.000000        0.00033220        0.00001717        0.00000508
     137         -1.117769        1.000000        0.00706076        0.00020230        0.00014307
     138         -1.116570        1.000000        0.00124211        0.00014809        0.00002296
     139         -1.115096        1.000000        0.00023638        0.00004095        0.00001142
     140         -1.114402        1.000000        0.00120253        0.00005765        0.00003343
     141         -1.114039        1.000000        0.00756506        0.00043130        0.00014676
     142         -1.112381        1.000000        0.00261994        0.00032497        0.00004646
     143         -1.111588        1.000000        0.00003172        0.00002187        0.00000321
     144         -1.111356        1.000000        0.00658821        0.00024587        0.00015012
     145         -1.110913        1.000000        0.00000182        0.00002805        0.00000075
     146         -1.109631        1.000000        0.00294497        0.00007152        0.00005550
     147         -1.107338        1.000000        0.00733899        0.00075212        0.00012831
     148         -1.107163        1.000000        0.00155992        0.00003347        0.00004223
     149         -1.106911        1.000000        0.00595891        0.00032905        0.00009043
     150         -1.105904        1.000000        0.00997421        0.00016611        0.00018922
     151         -1.104513        1.000000        0.00471221        0.00050099        0.00008463
     152         -1.103753        1.000000        0.00057115        0.00013046        0.00001612
     153         -1.103233        1.000000        0.02541939        0.00219311        0.00038598
     154         -1.101116        1.000000        0.00057884        0.00023873        0.00001589
     155         -1.099878        1.000000        0.00077468        0.00012922        0.00000840
     156         -1.099527        1.000000        0.00553114        0.00021518        0.00005619
     157         -1.099360        1.000000        0.00633099        0.00016569        0.00006746
     158         -1.097449        1.000000        0.00297017        0.00010129        0.00003152
     159         -1.097246        1.000000        0.00044373        0.00005855        0.00001174
     160         -1.096336        1.000000        0.00000564        0.00001222        0.00000542
     161         -1.095776        1.000000        0.00033000        0.00000311        0.00000921
     162         -1.094258        1.000000        0.00051455        0.00012121        0.00000707
     163         -1.093701        1.000000        0.00139673        0.00013100        0.00001174
     164         -1.093107        1.000000        0.00818141        0.00018305        0.00007806
     165         -1.091600        1.000000        0.00051226        0.00003527        0.00000718
     166         -1.090890        1.000000        0.00313598        0.00021593        0.00005838
     167         -1.090283        1.000000        0.01861723        0.00052679        0.00019723
     168         -1.089378        1.000000        0.00073835        0.00021361        0.00002241
     169         -1.088506        1.000000        0.00000239        0.00004052        0.00000886
     170         -1.086931        1.000000        0.01661437        0.00025270        0.00014283
     171         -1.086367        1.000000        0.00371829        0.00126522        0.00004617
     172         -1.085327        1.000000        0.00301427        0.00164321        0.00007835
     173         -1.084766        1.000000        0.00274206        0.00014368        0.00002940
     174         -1.083961        1.000000        0.00089081        0.00026458        0.00002865
     175         -1.082920        1.000000        0.00215727        0.00004556        0.00005128
     176         -1.081700        1.000000        0.00711885        0.00144623        0.00011909
     177         -1.081031        1.000000        0.00040087        0.00003488        0.00001508
     178         -1.080558        1.000000        0.00028718        0.00008220        0.00001259
     179         -1.080415        1.000000        0.00003117        0.00162871        0.00009998
     180         -1.080047        1.000000        0.00017614        0.00045196        0.00001569
     181         -1.077309        1.000000        0.01413423        0.00025318        0.00009910
     182         -1.076601        1.000000        0.00029404        0.00032066        0.00000845
     183         -1.076342        1.000000        0.00539598        0.00035206        0.00004789
     184         -1.076154        1.000000        0.00115573        0.00002098        0.00000891
     185         -1.075469        1.000000        0.00524167        0.00060151        0.00006683
     186         -1.074904        1.000000        0.00000129        0.00014023        0.00000981
     187         -1.074160        1.000000        0.00014907        0.00005999        0.00000832
     188         -1.073364        1.000000        0.00002163        0.00004423        0.00000123
     189         -1.071841        1.000000        0.00018911        0.00028409        0.00000371
     190         -1.071436        1.000000        0.00110893        0.00004641        0.00000694
     191         -1.070358        1.000000        0.00005709        0.00008748        0.00002697
     192         -1.070160        1.000000        0.00089019        0.00006886        0.00000290
     193         -1.069551        1.000000        0.00050674        0.00015280        0.00002496
     194         -1.069042        1.000000        0.00201591        0.00055455        0.00003882
     195         -1.068018        1.000000        0.00054509        0.00024108        0.00002873
     196         -1.067683        1.000000        0.00044502        0.00010383        0.00000720
     197         -1.067094        1.000000        0.00040246        0.00037989        0.00001839
     198         -1.066200        1.000000        0.00007335        0.00110007        0.00003443
     199         -1.065105        1.000000        0.00040431        0.00003478        0.00000498
     200         -1.064600        1.000000        0.00099776        0.00007986        0.00001466
     201         -1.063825        1.000000        0.00013975        0.00002727        0.00000062
     202         -1.063672        1.000000        0.00074926        0.00002561        0.00000915
     203         -1.062915        1.000000        0.00225510        0.00003398        0.00000914
     204         -1.062259        1.000000        0.00221913        0.00024476        0.00001647
     205         -1.061986        1.000000        0.00017717        0.00000651        0.00000268
     206         -1.060822        1.000000        0.00065743        0.00003963        0.00001905
     207         -1.060230        1.000000        0.00113098        0.00001484        0.00000199
     208         -1.059971        1.000000        0.00003335        0.00001731        0.00001317
     209         -1.059399        1.000000        0.00001569        0.00002345        0.00001018
     210         -1.058798        1.000000        0.00402025        0.00012061        0.00001797
     211         -1.058498        1.000000        0.00224227        0.00006859        0.00001116
     212         -1.057049        1.000000        0.00000798        0.00001300        0.00000718
     213         -1.056896        1.000000        0.00037305        0.00001332        0.00000656
     214         -1.056403        1.000000        0.00086839        0.00001085        0.00000241
     215         -1.056079        1.000000        0.00058679        0.00004077        0.00000114
     216         -1.055624        1.000000        0.00002012        0.00005455        0.00001463
     217         -1.055288        1.000000        0.00141843        0.00002441        0.00001321
     218         -1.054828        1.000000        0.00249598        0.00008521        0.00000743
     219         -1.054413        1.000000        0.00029282        0.00001160        0.00000168
     220         -1.053990        1.000000        0.00010189        0.00003098        0.00000940
     221         -1.053598        1.000000        0.00001261        0.00000024        0.00000068
     222         -1.053387        1.000000        0.00698860        0.00012005        0.00001046
     223         -1.052953        1.000000        0.02220976        0.00047679        0.00005632
     224         -1.052779        1.000000        0.01094303        0.00038306        0.00002857
     225         -1.052376        1.000000        0.00000077        0.00001631        0.00001219
     226         -1.052297        1.000000        0.00137365        0.00004198        0.00002396
     227         -1.051819        1.000000        0.01422293        0.00020292        0.00001776
     228         -1.051536        1.000000        0.00151253        0.00003886        0.00001293
     229         -1.051232        1.000000        0.02244251        0.00039712        0.00004459
     230         -1.050581        1.000000        0.00870696        0.00010421        0.00002770
     231         -1.050140        1.000000        0.00008963        0.00001408        0.00001355
     232         -1.049834        1.000000        0.00260760        0.00012939        0.00001595
     233         -1.049588        1.000000        0.00156179        0.00002923        0.00002031
     234         -1.049506        1.000000        0.00270275        0.00007373        0.00005936
     235         -1.048565        1.000000        0.00353652        0.00002456        0.00000338
     236         -1.048103        1.000000        0.00020205        0.00003852        0.00002689
     237         -1.048023        1.000000        0.00367941        0.00012487        0.00005408
     238         -1.047651        1.000000        0.00140785        0.00009031        0.00005082
     239         -1.047305        1.000000        0.00179094        0.00002468        0.00000316
     240         -1.046707        1.000000        0.00002406        0.00004918        0.00002289
     241         -1.046592        1.000000        0.00168959        0.00009933        0.00004952
     242         -1.046281        1.000000        0.00001502        0.00012351        0.00005216
     243         -1.045974        1.000000        0.00027110        0.00000576        0.00000691
     244         -1.045866        1.000000        0.00408984        0.00056273        0.00028712
     245         -1.045771        1.000000        0.00022287        0.00006084        0.00002068
     246         -1.045301        1.000000        0.00031432        0.00000658        0.00000553
     247         -1.045020        1.000000        0.00001799        0.00014023        0.00005576
     248         -1.043956        1.000000        0.00060172        0.00001306        0.00000682
     249         -1.043818        1.000000        0.00124739        0.00005891        0.00001806
     250         -1.043244        1.000000        0.00023749        0.00014876        0.00006997
     251         -1.043119        1.000000        0.00010727        0.00000912        0.00000430
     252         -1.042993        1.000000        0.00108410        0.00008517        0.00004028
     253         -1.042515        1.000000        0.00000463        0.00000133        0.00000541
     254         -1.041302        1.000000        0.00103519        0.00001634        0.00000904
     255         -1.041116        1.000000        0.00267489        0.00002483        0.00001569
     256         -1.040594        1.000000        0.02575742        0.00021395        0.00002429
     257         -1.040094        1.000000        0.00151501        0.00004541        0.00006189
     258         -1.039599        1.000000        0.03942363        0.00047617        0.00030490
     259         -1.039408        1.000000        0.00057025        0.00008179        0.00006119
     260         -1.038970        1.000000        0.00299876        0.00023829        0.00023865
     261         -1.038561        1.000000        0.00016285        0.00003456        0.00003004
     262         -1.038022        1.000000        0.00163092        0.00015912        0.00010905
     263         -1.037841        1.000000        0.00309662        0.00004200        0.00000955
     264         -1.036991        1.000000        0.02006452        0.00061498        0.00021478
     265         -1.036854        1.000000        0.00017075        0.00006965        0.00008481
     266         -1.035910        1.000000        0.00058308        0.00001273        0.00000437
     267         -1.035115        1.000000        0.06879050        0.00064937        0.00011668
     268         -1.034275        1.000000        0.00015891        0.00004719        0.00003257
     269         -1.033697        1.000000        0.01500654        0.00045244        0.00015164
     270         -1.033444        1.000000        0.00096074        0.00006796        0.00005844
     271         -1.033385        1.000000        0.00437754        0.00012265        0.00009974
     272         -1.033262        1.000000        0.00000827        0.00000453        0.00005768
     273         -1.032346        1.000000        0.00000817        0.00000211        0.00000054
     274         -1.031626        1.000000        0.00000559        0.00000958        0.00002065
     275         -1.030746        1.000000        0.00009688        0.00000405        0.00000317
     276         -1.029780        1.000000        0.00581564        0.00019883        0.00011034
     277         -1.028980        1.000000        0.00069084        0.00001670        0.00000546
     278         -1.027492        1.000000        0.00000149        0.00000028        0.00000005
     279         -1.025795        1.000000        0.00000216        0.00000026        0.00000004
     280         -1.023990        1.000000        0.00001287        0.00000061        0.00000039
     281         -1.022755        1.000000        0.00000022        0.00000006        0.00000002
     282         -1.019871        1.000000        0.00056670        0.00004593        0.00003145
     283         -1.017737        1.000000        0.00000118        0.00000029        0.00000004
     284         -1.012409        1.000000        0.00456435        0.00035256        0.00015083
     285         -1.010522        1.000000        0.00000066        0.00000005        0.00000003
     286         -0.880961        1.000000        0.00000000        0.00000000        0.00000000
     287         -0.861761        1.000000        0.00000000        0.00000000        0.00000000
     288         -0.860652        1.000000        0.00000000        0.00000000        0.00000000
     289         -0.854811        1.000000        0.00000000        0.00000000        0.00000000
     290         -0.853189        1.000000        0.00000000        0.00000000        0.00000000
     291         -0.838407        1.000000        0.00000000        0.00000000        0.00000000
     292         -0.837131        1.000000        0.00000000        0.00000000        0.00000000
     293         -0.835422        1.000000        0.00000000        0.00000000        0.00000000
     294         -0.832873        1.000000        0.00000000        0.00000000        0.00000000
     295         -0.813092        1.000000        0.00000000        0.00000000        0.00000000
     296         -0.811309        1.000000        0.00000000        0.00000000        0.00000000
     297         -0.805633        1.000000        0.00000000        0.00000000        0.00000000
     298         -0.800994        1.000000        0.00000000        0.00000000        0.00000000
     299         -0.798544        1.000000        0.00000000        0.00000000        0.00000000
     300         -0.797176        1.000000        0.00000000        0.00000000        0.00000000
     301         -0.796065        1.000000        0.00000000        0.00000000        0.00000000
     302         -0.795247        1.000000        0.00000000        0.00000000        0.00000000
     303         -0.794465        1.000000        0.00000000        0.00000000        0.00000000
     304         -0.792558        1.000000        0.00000000        0.00000000        0.00000000
     305         -0.791532        1.000000        0.00000000        0.00000000        0.00000000
     306         -0.790931        1.000000        0.00000000        0.00000000        0.00000000
     307         -0.790366        1.000000        0.00000000        0.00000000        0.00000000