# Projected DOS for list 182 of 1 atoms, at iteration step i = 0, E(Fermi) =    -0.237583 a.u.
#     MO Eigenvalue [a.u.]      Occupation                 s                 p                 d
       1         -3.115895        1.000000        0.00000000        0.00000000        0.00000000
       2         -3.112717        1.000000        0.00000000        0.00000000        0.00000000
       3         -3.112103        1.000000        0.00000000        0.00000000        0.00000000
       4         -3.111180        1.000000        0.00000000        0.00000000        0.00000000
       5         -3.110810        1.000000        0.00000000        0.00000000        0.00000000
       6         -3.110575        1.000000        0.00000000        0.00000000        0.00000000
       7         -3.110067        1.000000        0.00000000        0.00000000        0.00000000
       8         -3.109817        1.000000        0.00000000        0.00000000        0.00000000
       9         -3.109660        1.000000        0.00000000        0.00000000        0.00000000
      10         -3.108831        1.000000        0.00000000        0.00000000        0.00000000
      11         -3.108678        1.000000        0.00000000        0.00000000        0.00000000
      12         -3.108578        1.000000        0.00000000        0.00000000        0.00000000
      13         -3.108350        1.000000        0.00000000        0.00000000        0.00000000
      14         -3.108163        1.000000        0.00000000        0.00000000        0.00000000
      15         -3.107948        1.000000        0.00000000        0.00000000        0.00000000
      16         -3.107865        1.000000        0.00000000        0.00000000        0.00000000
      17         -3.107703        1.000000        0.00000000        0.00000000        0.00000000
      18         -3.107683        1.000000        0.00000000        0.00000000        0.00000000
      19         -3.107641        1.000000        0.00000000        0.00000000        0.00000000
      20         -3.107604        1.000000        0.00000000        0.00000000        0.00000000
      21         -3.107402        1.000000        0.00000000        0.00000000        0.00000000
      22         -3.107115        1.000000        0.00000000        0.00000000        0.00000000
      23         -3.107013        1.000000        0.00000000        0.00000000        0.00000000
      24         -3.106750        1.000000        0.00000000        0.00000000        0.00000000
      25         -3.106619        1.000000        0.00000000        0.00000000        0.00000000
      26         -3.106567        1.000000        0.00000000        0.00000000        0.00000000
      27         -3.106546        1.000000        0.00000000        0.00000000        0.00000000
      28         -3.106258        1.000000        0.00000000        0.00000000        0.00000000
      29         -3.106103        1.000000        0.00000000        0.00000000        0.00000000
      30         -3.104674        1.000000        0.00000000        0.00000000        0.00000000
      31         -1.775522        1.000000        0.00000000        0.00000000        0.00000000
      32         -1.773964        1.000000        0.00000000        0.00000000        0.00000000
      33         -1.773454        1.000000        0.00000000        0.00000000        0.00000000
      34         -1.773008        1.000000        0.00000000        0.00000000        0.00000000
      35         -1.772581        1.000000        0.00000000        0.00000000        0.00000000
      36         -1.772213        1.000000        0.00000000        0.00000000        0.00000000
      37         -1.771852        1.000000        0.00000000        0.00000000        0.00000000
      38         -1.771444        1.000000        0.00000000        0.00000000        0.00000000
      39         -1.771233        1.000000        0.00000000        0.00000000        0.00000000
      40         -1.770977        1.000000        0.00000000        0.00000000        0.00000000
      41         -1.770760        1.000000        0.00000000        0.00000000        0.00000000
      42         -1.770111        1.000000        0.00000000        0.00000000        0.00000000
      43         -1.770034        1.000000        0.00000000        0.00000000        0.00000000
      44         -1.769495        1.000000        0.00000000        0.00000000        0.00000000
      45         -1.769421        1.000000        0.00000000        0.00000000        0.00000000
      46         -1.769063        1.000000        0.00000000        0.00000000        0.00000000
      47         -1.768532        1.000000        0.00000000        0.00000000        0.00000000
      48         -1.768412        1.000000        0.00000000        0.00000000        0.00000000
      49         -1.767811        1.000000        0.00000000        0.00000000        0.00000000
      50         -1.767614        1.000000        0.00000000        0.00000000        0.00000000
      51         -1.767477        1.000000        0.00000000        0.00000000        0.00000000
      52         -1.765531        1.000000        0.00000000        0.00000000        0.00000000
      53         -1.765088        1.000000        0.00000000        0.00000000        0.00000000
      54         -1.764557        1.000000        0.00000000        0.00000000        0.00000000
      55         -1.763772        1.000000        0.00000000        0.00000000        0.00000000
      56         -1.763328        1.000000        0.00000000        0.00000000        0.00000000
      57         -1.762925        1.000000        0.00000000        0.00000000        0.00000000
      58         -1.762506        1.000000        0.00000000        0.00000000        0.00000000
      59         -1.762119        1.000000        0.00000000        0.00000000        0.00000000
      60         -1.762053        1.000000        0.00000000        0.00000000        0.00000000
      61         -1.761895        1.000000        0.00000000        0.00000000        0.00000000
      62         -1.761602        1.000000        0.00000000        0.00000000        0.00000000
      63         -1.761509        1.000000        0.00000000        0.00000000        0.00000000
      64         -1.761377        1.000000        0.00000000        0.00000000        0.00000000
      65         -1.761171        1.000000        0.00000000        0.00000000        0.00000000
      66         -1.760998        1.000000        0.00000000        0.00000000        0.00000000
      67         -1.760877        1.000000        0.00000000        0.00000000        0.00000000
      68         -1.760806        1.000000        0.00000000        0.00000000        0.00000000
      69         -1.760684        1.000000        0.00000000        0.00000000        0.00000000
      70         -1.760645        1.000000        0.00000000        0.00000000        0.00000000
      71         -1.760442        1.000000        0.00000000        0.00000000        0.00000000
      72         -1.760098        1.000000        0.00000000        0.00000000        0.00000000
      73         -1.759962        1.000000        0.00000000        0.00000000        0.00000000
      74         -1.759824        1.000000        0.00000000        0.00000000        0.00000000
      75         -1.759787        1.000000        0.00000000        0.00000000        0.00000000
      76         -1.759638        1.000000        0.00000000        0.00000000        0.00000000
      77         -1.759601        1.000000        0.00000000        0.00000000        0.00000000
      78         -1.759512        1.000000        0.00000000        0.00000000        0.00000000
      79         -1.759406        1.000000        0.00000000        0.00000000        0.00000000
      80         -1.759287        1.000000        0.00000000        0.00000000        0.00000000
      81         -1.759176        1.000000        0.00000000        0.00000000        0.00000000
      82         -1.758872        1.000000        0.00000000        0.00000000        0.00000000
      83         -1.758781        1.000000        0.00000000        0.00000000        0.00000000
      84         -1.758726        1.000000        0.00000000        0.00000000        0.00000000
      85         -1.758559        1.000000        0.00000000        0.00000000        0.00000000
      86         -1.758378        1.000000        0.00000000        0.00000000        0.00000000
      87         -1.758294        1.000000        0.00000000        0.00000000        0.00000000
      88         -1.758087        1.000000        0.00000000        0.00000000        0.00000000
      89         -1.757987        1.000000        0.00000000        0.00000000        0.00000000
      90         -1.757734        1.000000        0.00000000        0.00000000        0.00000000
      91         -1.757649        1.000000        0.00000000        0.00000000        0.00000000
      92         -1.757529        1.000000        0.00000000        0.00000000        0.00000000
      93         -1.757404        1.000000        0.00000000        0.00000000        0.00000000
      94         -1.757324        1.000000        0.00000000        0.00000000        0.00000000
      95         -1.757187        1.000000        0.00000000        0.00000000        0.00000000
      96         -1.757137        1.000000        0.00000000        0.00000000        0.00000000
      97         -1.756770        1.000000        0.00000000        0.00000000        0.00000000
      98         -1.756598        1.000000        0.00000000        0.00000000        0.00000000
      99         -1.756513        1.000000        0.00000000        0.00000000        0.00000000
     100         -1.756186        1.000000        0.00000000        0.00000000        0.00000000
     101         -1.755847        1.000000        0.00000000        0.00000000        0.00000000
     102         -1.755716        1.000000        0.00000000        0.00000000        0.00000000
     103         -1.755306        1.000000        0.00000000        0.00000000        0.00000000
     104         -1.755052        1.000000        0.00000000        0.00000000        0.00000000
     105         -1.754765        1.000000        0.00000000        0.00000000        0.00000000
     106         -1.754094        1.000000        0.00000000        0.00000000        0.00000000
     107         -1.753681        1.000000        0.00000000        0.00000000        0.00000000
     108         -1.753548        1.000000        0.00000000        0.00000000        0.00000000
     109         -1.753256        1.000000        0.00000000        0.00000000        0.00000000
     110         -1.752675        1.000000        0.00000000        0.00000000        0.00000000
     111         -1.752502        1.000000        0.00000000        0.00000000        0.00000000
     112         -1.752253        1.000000        0.00000000        0.00000000        0.00000000
     113         -1.751643        1.000000        0.00000000        0.00000000        0.00000000
     114         -1.751317        1.000000        0.00000000        0.00000000        0.00000000
     115         -1.749193        1.000000        0.00000000        0.00000000        0.00000000
     116         -1.748137        1.000000        0.00000000        0.00000000        0.00000000
     117         -1.747283        1.000000        0.00000000        0.00000000        0.00000000
     118         -1.745962        1.000000        0.00000000        0.00000000        0.00000000
     119         -1.745880        1.000000        0.00000000        0.00000000        0.00000000
     120         -1.744143        1.000000        0.00000000        0.00000000        0.00000000
     121         -1.145318        1.000000        0.00268664        0.00205541        0.00044753
     122         -1.141162        1.000000        0.00083140        0.00139057        0.00029941
     123         -1.135518        1.000000        0.00129900        0.00144899        0.00021748
     124         -1.134356        1.000000        0.00000254        0.00025021        0.00005555
     125         -1.132797        1.000000        0.00069697        0.00034454        0.00006597
     126         -1.131675        1.000000        0.00015314        0.00046712        0.00009875
     127         -1.130657        1.000000        0.00001412        0.00412195        0.00099133
     128         -1.129329        1.000000        0.00040845        0.00267456        0.00051840
     129         -1.127805        1.000000        0.00094896        0.00061778        0.00017299
     130         -1.126970        1.000000        0.00041966        0.00022273        0.00002931
     131         -1.125100        1.000000        0.00190597        0.00059218        0.00018350
     132         -1.124640        1.000000        0.00026215        0.00296850        0.00075469
     133         -1.122028        1.000000        0.00160172        0.00036852        0.00009099
     134         -1.120887        1.000000        0.00014338        0.00012371        0.00003128
     135         -1.119308        1.000000        0.00463748        0.00041805        0.00006549
     136         -1.118408        1.000000        0.00029337        0.00023997        0.00007913
     137         -1.117769        1.000000        0.00615768        0.00043216        0.00005926
     138         -1.116570        1.000000        0.00206903        0.00062680        0.00014339
     139         -1.115096        1.000000        0.00001810        0.00074590        0.00023159
     140         -1.114402        1.000000        0.00126357        0.00121275        0.00024479
     141         -1.114039        1.000000        0.00987073        0.00255562        0.00097725
     142         -1.112381        1.000000        0.00395048        0.00245428        0.00057185
     143         -1.111588        1.000000        0.00010963        0.00016803        0.00003360
     144         -1.111356        1.000000        0.00294111        0.00179426        0.00056414
     145         -1.110913        1.000000        0.00006131        0.00026128        0.00007250
     146         -1.109631        1.000000        0.00168689        0.00077395        0.00012902
     147         -1.107338        1.000000        0.00057588        0.00240796        0.00069976
     148         -1.107163        1.000000        0.00051850        0.00108017        0.00024381
     149         -1.106911        1.000000        0.00611199        0.00050578        0.00005280
     150         -1.105904        1.000000        0.00561706        0.00152019        0.00045642
     151         -1.104513        1.000000        0.00673824        0.00340030        0.00078643
     152         -1.103753        1.000000        0.00126621        0.00163908        0.00035988
     153         -1.103233        1.000000        0.00188070        0.00799448        0.00225355
     154         -1.101116        1.000000        0.00006685        0.00059998        0.00015490
     155         -1.099878        1.000000        0.00000275        0.00072280        0.00021157
     156         -1.099527        1.000000        0.00365954        0.00256709        0.00048936
     157         -1.099360        1.000000        0.00323814        0.00075141        0.00027105
     158         -1.097449        1.000000        0.00185170        0.00110990        0.00020620
     159         -1.097246        1.000000        0.00053881        0.00012448        0.00004886
     160         -1.096336        1.000000        0.00004583        0.00053301        0.00015961
     161         -1.095776        1.000000        0.00013571        0.00002697        0.00001328
     162         -1.094258        1.000000        0.00084257        0.00005044        0.00001268
     163         -1.093701        1.000000        0.00120337        0.00050089        0.00014470
     164         -1.093107        1.000000        0.00309120        0.00295863        0.00065629
     165         -1.091600        1.000000        0.00006166        0.00144788        0.00039455
     166         -1.090890        1.000000        0.00235732        0.00274423        0.00067321
     167         -1.090283        1.000000        0.00872350        0.00229311        0.00049520
     168         -1.089378        1.000000        0.00007193        0.00100470        0.00026901
     169         -1.088506        1.000000        0.00011046        0.00024285        0.00005850
     170         -1.086931        1.000000        0.00431991        0.00213255        0.00074484
     171         -1.086367        1.000000        0.00668840        0.00021038        0.00011997
     172         -1.085327        1.000000        0.00749322        0.00056922        0.00022834
     173         -1.084766        1.000000        0.00007170        0.00104300        0.00048220
     174         -1.083961        1.000000        0.00130571        0.00055607        0.00018284
     175         -1.082920        1.000000        0.00087548        0.00199295        0.00073945
     176         -1.081700        1.000000        0.00051464        0.00650541        0.00216313
     177         -1.081031        1.000000        0.00001420        0.00285734        0.00074471
     178         -1.080558        1.000000        0.00020325        0.00353325        0.00132274
     179         -1.080415        1.000000        0.00503915        0.00305846        0.00095145
     180         -1.080047        1.000000        0.00082137        0.00074953        0.00029018
     181         -1.077309        1.000000        0.00103413        0.00332690        0.00130453
     182         -1.076601        1.000000        0.00099473        0.00077565        0.00033915
     183         -1.076342        1.000000        0.00263979        0.00140493        0.00056899
     184         -1.076154        1.000000        0.00014311        0.00044758        0.00013685
     185         -1.075469        1.000000        0.00402672        0.00054442        0.00035807
     186         -1.074904        1.000000        0.00029318        0.00133298        0.00047112
     187         -1.074160        1.000000        0.00026687        0.00027142        0.00010838
     188         -1.073364        1.000000        0.00007850        0.00072004        0.00020997
     189         -1.071841        1.000000        0.00083543        0.00045720        0.00022359
     190         -1.071436        1.000000        0.00030696        0.00010460        0.00002913
     191         -1.070358        1.000000        0.00044077        0.00074362        0.00030644
     192         -1.070160        1.000000        0.00033756        0.00028828        0.00004814
     193         -1.069551        1.000000        0.00046663        0.00092724        0.00035811
     194         -1.069042        1.000000        0.00223742        0.00001190        0.00003507
     195         -1.068018        1.000000        0.00120100        0.00030766        0.00012160
     196         -1.067683        1.000000        0.00039327        0.00017563        0.00005478
     197         -1.067094        1.000000        0.00050721        0.00064493        0.00042832
     198         -1.066200        1.000000        0.00258929        0.00173076        0.00056145
     199         -1.065105        1.000000        0.00017915        0.00005691        0.00002486
     200         -1.064600        1.000000        0.00038958        0.00054519        0.00014449
     201         -1.063825        1.000000        0.00000990        0.00032639        0.00009574
     202         -1.063672        1.000000        0.00000138        0.00039625        0.00014012
     203         -1.062915        1.000000        0.00005060        0.00091728        0.00031100
     204         -1.062259        1.000000        0.00021726        0.00144430        0.00060164
     205         -1.061986        1.000000        0.00000227        0.00029585        0.00012636
     206         -1.060822        1.000000        0.00001301        0.00059708        0.00026811
     207         -1.060230        1.000000        0.00000287        0.00124808        0.00039472
     208         -1.059971        1.000000        0.00000083        0.00005327        0.00003578
     209         -1.059399        1.000000        0.00002378        0.00019793        0.00005263
     210         -1.058798        1.000000        0.00001764        0.00185456        0.00075099
     211         -1.058498        1.000000        0.00001669        0.00141662        0.00047770
     212         -1.057049        1.000000        0.00000914        0.00086544        0.00032742
     213         -1.056896        1.000000        0.00004881        0.00007619        0.00003107
     214         -1.056403        1.000000        0.00001795        0.00066158        0.00021798
     215         -1.056079        1.000000        0.00006707        0.00124892        0.00049165
     216         -1.055624        1.000000        0.00006381        0.00008238        0.00003945
     217         -1.055288        1.000000        0.00013853        0.00210417        0.00084854
     218         -1.054828        1.000000        0.00003307        0.00236452        0.00085109
     219         -1.054413        1.000000        0.00000074        0.00056480        0.00021021
     220         -1.053990        1.000000        0.00002359        0.00019575        0.00005930
     221         -1.053598        1.000000        0.00000010        0.00006604        0.00003244
     222         -1.053387        1.000000        0.00002324        0.00543822        0.00199501
     223         -1.052953        1.000000        0.00008040        0.01516247        0.00527572
     224         -1.052779        1.000000        0.00029965        0.00747547        0.00277134
     225         -1.052376        1.000000        0.00001672        0.00018114        0.00009673
     226         -1.052297        1.000000        0.00000367        0.00070410        0.00023267
     227         -1.051819        1.000000        0.00000557        0.01093030        0.00378235
     228         -1.051536        1.000000        0.00000734        0.00058965        0.00024690
     229         -1.051232        1.000000        0.00007552        0.01696787        0.00615680
     230         -1.050581        1.000000        0.00000529        0.00462145        0.00179588
     231         -1.050140        1.000000        0.00000327        0.00294659        0.00117331
     232         -1.049834        1.000000        0.00014981        0.00247378        0.00098665
     233         -1.049588        1.000000        0.00000049        0.00261436        0.00109786
     234         -1.049506        1.000000        0.00002844        0.00985019        0.00392929
     235         -1.048565        1.000000        0.00000425        0.00126947        0.00048793
     236         -1.048103        1.000000        0.00000138        0.00563717        0.00209589
     237         -1.048023        1.000000        0.00001394        0.00549884        0.00247121
     238         -1.047651        1.000000        0.00004079        0.00412790        0.00194896
     239         -1.047305        1.000000        0.00000707        0.00076748        0.00031299
     240         -1.046707        1.000000        0.00003947        0.00188949        0.00073266
     241         -1.046592        1.000000        0.00003266        0.00359972        0.00169542
     242         -1.046281        1.000000        0.00011019        0.00306470        0.00136905
     243         -1.045974        1.000000        0.00000072        0.00087519        0.00031916
     244         -1.045866        1.000000        0.00054158        0.02096642        0.00850014
     245         -1.045771        1.000000        0.00006842        0.00196880        0.00089234
     246         -1.045301        1.000000        0.00000441        0.00057395        0.00022199
     247         -1.045020        1.000000        0.00012378        0.00339341        0.00146772
     248         -1.043956        1.000000        0.00001854        0.00084518        0.00034108
     249         -1.043818        1.000000        0.00002505        0.00201424        0.00091313
     250         -1.043244        1.000000        0.00013491        0.00556442        0.00243506
     251         -1.043119        1.000000        0.00000002        0.00052032        0.00017928
     252         -1.042993        1.000000        0.00001438        0.00237672        0.00080216
     253         -1.042515        1.000000        0.00000017        0.00024932        0.00011134
     254         -1.041302        1.000000        0.00000305        0.00100973        0.00037516
     255         -1.041116        1.000000        0.00000410        0.00273135        0.00121024
     256         -1.040594        1.000000        0.00006671        0.01239617        0.00498411
     257         -1.040094        1.000000        0.00003561        0.00538750        0.00268511
     258         -1.039599        1.000000        0.00022951        0.03307575        0.01676729
     259         -1.039408        1.000000        0.00002549        0.00857517        0.00372948
     260         -1.038970        1.000000        0.00006495        0.03206258        0.01374986
     261         -1.038561        1.000000        0.00002794        0.00288083        0.00130806
     262         -1.038022        1.000000        0.00001039        0.01802575        0.00781906
     263         -1.037841        1.000000        0.00000517        0.00216374        0.00102591
     264         -1.036991        1.000000        0.00000883        0.04521324        0.01989379
     265         -1.036854        1.000000        0.00002092        0.00766651        0.00331623
     266         -1.035910        1.000000        0.00000083        0.00057612        0.00024708
     267         -1.035115        1.000000        0.00004050        0.02299497        0.01173403
     268         -1.034275        1.000000        0.00002300        0.00155106        0.00054931
     269         -1.033697        1.000000        0.00000299        0.01087636        0.00540718
     270         -1.033444        1.000000        0.00000111        0.00096026        0.00051484
     271         -1.033385        1.000000        0.00000630        0.00211827        0.00115466
     272         -1.033262        1.000000        0.00000235        0.00409327        0.00200580
     273         -1.032346        1.000000        0.00000118        0.00004690        0.00002121
     274         -1.031626        1.000000        0.00003740        0.00045267        0.00023053
     275         -1.030746        1.000000        0.00000058        0.00007475        0.00003662
     276         -1.029780        1.000000        0.00001901        0.00149602        0.00075242
     277         -1.028980        1.000000        0.00000027        0.00020427        0.00010277
     278         -1.027492        1.000000        0.00000010        0.00000464        0.00000234
     279         -1.025795        1.000000        0.00000020        0.00000612        0.00000294
     280         -1.023990        1.000000        0.00000005        0.00000307        0.00000158
     281         -1.022755        1.000000        0.00000000        0.00000260        0.00000118
     282         -1.019871        1.000000        0.00009126        0.00333088        0.00172988
     283         -1.017737        1.000000        0.00000011        0.00000027        0.00000008
     284         -1.012409        1.000000        0.00005316        0.00090169        0.00048750
     285         -1.010522        1.000000        0.00000004        0.00000469        0.00000208
     286         -0.880961        1.000000        0.00000000        0.00000000        0.00000000
     287         -0.861761        1.000000        0.00000000        0.00000000        0.00000000
     288         -0.860652        1.000000        0.00000000        0.00000000        0.00000000
     289         -0.854811        1.000000        0.00000000        0.00000000        0.00000000
     290         -0.853189        1.000000        0.00000000        0.00000000        0.00000000
     291         -0.838407        1.000000        0.00000000        0.00000000        0.00000000
     292         -0.837131        1.000000        0.00000000        0.00000000        0.00000000
     293         -0.835422        1.000000        0.00000000        0.00000000        0.00000000
     294         -0.832873        1.000000        0.00000000        0.00000000        0.00000000
     295         -0.813092        1.000000        0.00000000        0.00000000        0.00000000
     296         -0.811309        1.000000        0.00000000        0.00000000        0.00000000
     297         -0.805633        1.000000        0.00000000        0.00000000        0.00000000
     298         -0.800994        1.000000        0.00000000        0.00000000        0.00000000
     299         -0.798544        1.000000        0.00000000        0.00000000        0.00000000
     300         -0.797176        1.000000        0.00000000        0.00000000        0.00000000
     301         -0.796065        1.000000        0.00000000        0.00000000        0.00000000
     302         -0.795247        1.000000        0.00000000        0.00000000        0.00000000
     303         -0.794465        1.000000        0.00000000        0.00000000        0.00000000
     304         -0.792558        1.000000        0.00000000        0.00000000        0.00000000
     305         -0.791532        1.000000        0.00000000        0.00000000        0.00000000
     306         -0.790931        1.000000        0.00000000        0.00000000        0.00000000
     307         -0.790366        1.000000        0.00000000        0.00000000        0.00000000