# Projected DOS for list 170 of 1 atoms, at iteration step i = 0, E(Fermi) =    -0.237583 a.u.
#     MO Eigenvalue [a.u.]      Occupation                 s                 p                 d
       1         -3.115895        1.000000        0.00000001        0.00000001        0.00000000
       2         -3.112717        1.000000        0.00000003        0.00000002        0.00000000
       3         -3.112103        1.000000        0.00000001        0.00000001        0.00000000
       4         -3.111180        1.000000        0.00000000        0.00000000        0.00000000
       5         -3.110810        1.000000        0.00000001        0.00000001        0.00000000
       6         -3.110575        1.000000        0.00000002        0.00000002        0.00000000
       7         -3.110067        1.000000        0.00000001        0.00000001        0.00000000
       8         -3.109817        1.000000        0.00000001        0.00000001        0.00000000
       9         -3.109660        1.000000        0.00000002        0.00000003        0.00000000
      10         -3.108831        1.000000        0.00000001        0.00000002        0.00000000
      11         -3.108678        1.000000        0.00000000        0.00000001        0.00000000
      12         -3.108578        1.000000        0.00000000        0.00000001        0.00000000
      13         -3.108350        1.000000        0.00000000        0.00000001        0.00000000
      14         -3.108163        1.000000        0.00000000        0.00000000        0.00000000
      15         -3.107948        1.000000        0.00000000        0.00000000        0.00000000
      16         -3.107865        1.000000        0.00000000        0.00000000        0.00000000
      17         -3.107703        1.000000        0.00000000        0.00000001        0.00000000
      18         -3.107683        1.000000        0.00000000        0.00000000        0.00000000
      19         -3.107641        1.000000        0.00000000        0.00000000        0.00000000
      20         -3.107604        1.000000        0.00000000        0.00000000        0.00000000
      21         -3.107402        1.000000        0.00000000        0.00000000        0.00000000
      22         -3.107115        1.000000        0.00000000        0.00000000        0.00000000
      23         -3.107013        1.000000        0.00000000        0.00000000        0.00000000
      24         -3.106750        1.000000        0.00000000        0.00000000        0.00000000
      25         -3.106619        1.000000        0.00000000        0.00000000        0.00000000
      26         -3.106567        1.000000        0.00000000        0.00000000        0.00000000
      27         -3.106546        1.000000        0.00000000        0.00000000        0.00000000
      28         -3.106258        1.000000        0.00000000        0.00000000        0.00000000
      29         -3.106103        1.000000        0.00000000        0.00000000        0.00000000
      30         -3.104674        1.000000        0.00000000        0.00000000        0.00000000
      31         -1.775522        1.000000        0.00000000        0.00000000        0.00000000
      32         -1.773964        1.000000        0.00000000        0.00000000        0.00000000
      33         -1.773454        1.000000        0.00000000        0.00000000        0.00000000
      34         -1.773008        1.000000        0.00000000        0.00000000        0.00000000
      35         -1.772581        1.000000        0.00000000        0.00000000        0.00000000
      36         -1.772213        1.000000        0.00000000        0.00000000        0.00000000
      37         -1.771852        1.000000        0.00000000        0.00000000        0.00000000
      38         -1.771444        1.000000        0.00000000        0.00000000        0.00000000
      39         -1.771233        1.000000        0.00000000        0.00000000        0.00000000
      40         -1.770977        1.000000        0.00000000        0.00000000        0.00000000
      41         -1.770760        1.000000        0.00000000        0.00000000        0.00000000
      42         -1.770111        1.000000        0.00000000        0.00000000        0.00000000
      43         -1.770034        1.000000        0.00000000        0.00000000        0.00000000
      44         -1.769495        1.000000        0.00000000        0.00000000        0.00000000
      45         -1.769421        1.000000        0.00000000        0.00000000        0.00000000
      46         -1.769063        1.000000        0.00000000        0.00000000        0.00000000
      47         -1.768532        1.000000        0.00000000        0.00000000        0.00000000
      48         -1.768412        1.000000        0.00000000        0.00000000        0.00000000
      49         -1.767811        1.000000        0.00000000        0.00000000        0.00000000
      50         -1.767614        1.000000        0.00000000        0.00000000        0.00000000
      51         -1.767477        1.000000        0.00000000        0.00000000        0.00000000
      52         -1.765531        1.000000        0.00000000        0.00000000        0.00000000
      53         -1.765088        1.000000        0.00000000        0.00000000        0.00000000
      54         -1.764557        1.000000        0.00000000        0.00000000        0.00000000
      55         -1.763772        1.000000        0.00000000        0.00000000        0.00000000
      56         -1.763328        1.000000        0.00000000        0.00000000        0.00000000
      57         -1.762925        1.000000        0.00000000        0.00000000        0.00000000
      58         -1.762506        1.000000        0.00000000        0.00000000        0.00000000
      59         -1.762119        1.000000        0.00000000        0.00000000        0.00000000
      60         -1.762053        1.000000        0.00000000        0.00000000        0.00000000
      61         -1.761895        1.000000        0.00000000        0.00000000        0.00000000
      62         -1.761602        1.000000        0.00000000        0.00000000        0.00000000
      63         -1.761509        1.000000        0.00000000        0.00000000        0.00000000
      64         -1.761377        1.000000        0.00000000        0.00000000        0.00000000
      65         -1.761171        1.000000        0.00000000        0.00000000        0.00000000
      66         -1.760998        1.000000        0.00000000        0.00000000        0.00000000
      67         -1.760877        1.000000        0.00000000        0.00000000        0.00000000
      68         -1.760806        1.000000        0.00000000        0.00000000        0.00000000
      69         -1.760684        1.000000        0.00000000        0.00000000        0.00000000
      70         -1.760645        1.000000        0.00000000        0.00000000        0.00000000
      71         -1.760442        1.000000        0.00000000        0.00000000        0.00000000
      72         -1.760098        1.000000        0.00000000        0.00000000        0.00000000
      73         -1.759962        1.000000        0.00000000        0.00000000        0.00000000
      74         -1.759824        1.000000        0.00000000        0.00000000        0.00000000
      75         -1.759787        1.000000        0.00000000        0.00000000        0.00000000
      76         -1.759638        1.000000        0.00000000        0.00000000        0.00000000
      77         -1.759601        1.000000        0.00000000        0.00000000        0.00000000
      78         -1.759512        1.000000        0.00000000        0.00000000        0.00000000
      79         -1.759406        1.000000        0.00000000        0.00000000        0.00000000
      80         -1.759287        1.000000        0.00000000        0.00000000        0.00000000
      81         -1.759176        1.000000        0.00000000        0.00000000        0.00000000
      82         -1.758872        1.000000        0.00000000        0.00000000        0.00000000
      83         -1.758781        1.000000        0.00000000        0.00000000        0.00000000
      84         -1.758726        1.000000        0.00000000        0.00000000        0.00000000
      85         -1.758559        1.000000        0.00000000        0.00000000        0.00000000
      86         -1.758378        1.000000        0.00000000        0.00000000        0.00000000
      87         -1.758294        1.000000        0.00000000        0.00000000        0.00000000
      88         -1.758087        1.000000        0.00000000        0.00000000        0.00000000
      89         -1.757987        1.000000        0.00000000        0.00000000        0.00000000
      90         -1.757734        1.000000        0.00000000        0.00000000        0.00000000
      91         -1.757649        1.000000        0.00000000        0.00000000        0.00000000
      92         -1.757529        1.000000        0.00000000        0.00000000        0.00000000
      93         -1.757404        1.000000        0.00000000        0.00000000        0.00000000
      94         -1.757324        1.000000        0.00000000        0.00000000        0.00000000
      95         -1.757187        1.000000        0.00000000        0.00000000        0.00000000
      96         -1.757137        1.000000        0.00000000        0.00000000        0.00000000
      97         -1.756770        1.000000        0.00000000        0.00000000        0.00000000
      98         -1.756598        1.000000        0.00000000        0.00000000        0.00000000
      99         -1.756513        1.000000        0.00000000        0.00000000        0.00000000
     100         -1.756186        1.000000        0.00000000        0.00000000        0.00000000
     101         -1.755847        1.000000        0.00000000        0.00000000        0.00000000
     102         -1.755716        1.000000        0.00000000        0.00000000        0.00000000
     103         -1.755306        1.000000        0.00000000        0.00000000        0.00000000
     104         -1.755052        1.000000        0.00000000        0.00000000        0.00000000
     105         -1.754765        1.000000        0.00000000        0.00000000        0.00000000
     106         -1.754094        1.000000        0.00000000        0.00000000        0.00000000
     107         -1.753681        1.000000        0.00000000        0.00000000        0.00000000
     108         -1.753548        1.000000        0.00000000        0.00000000        0.00000000
     109         -1.753256        1.000000        0.00000000        0.00000000        0.00000000
     110         -1.752675        1.000000        0.00000000        0.00000000        0.00000000
     111         -1.752502        1.000000        0.00000000        0.00000000        0.00000000
     112         -1.752253        1.000000        0.00000000        0.00000000        0.00000000
     113         -1.751643        1.000000        0.00000000        0.00000000        0.00000000
     114         -1.751317        1.000000        0.00000000        0.00000000        0.00000000
     115         -1.749193        1.000000        0.00000000        0.00000000        0.00000000
     116         -1.748137        1.000000        0.00000000        0.00000000        0.00000000
     117         -1.747283        1.000000        0.00000000        0.00000000        0.00000000
     118         -1.745962        1.000000        0.00000000        0.00000000        0.00000000
     119         -1.745880        1.000000        0.00000000        0.00000000        0.00000000
     120         -1.744143        1.000000        0.00000000        0.00000000        0.00000000
     121         -1.145318        1.000000        0.00254262        0.00210500        0.00053405
     122         -1.141162        1.000000        0.00023997        0.00098341        0.00019248
     123         -1.135518        1.000000        0.00000775        0.00042818        0.00010310
     124         -1.134356        1.000000        0.00080129        0.00031936        0.00004995
     125         -1.132797        1.000000        0.00135617        0.00041581        0.00017294
     126         -1.131675        1.000000        0.00088136        0.00022135        0.00009165
     127         -1.130657        1.000000        0.00122478        0.00027012        0.00012057
     128         -1.129329        1.000000        0.00147063        0.00102910        0.00030641
     129         -1.127805        1.000000        0.00084929        0.00274454        0.00069163
     130         -1.126970        1.000000        0.00132638        0.00138836        0.00024915
     131         -1.125100        1.000000        0.00104497        0.00021918        0.00011514
     132         -1.124640        1.000000        0.00753711        0.00100310        0.00048298
     133         -1.122028        1.000000        0.00099644        0.00018050        0.00008813
     134         -1.120887        1.000000        0.00008833        0.00009746        0.00002269
     135         -1.119308        1.000000        0.00816246        0.00083885        0.00023841
     136         -1.118408        1.000000        0.00106331        0.00013356        0.00001197
     137         -1.117769        1.000000        0.00877463        0.00066905        0.00026683
     138         -1.116570        1.000000        0.00036334        0.00055606        0.00021418
     139         -1.115096        1.000000        0.00935412        0.00132274        0.00042617
     140         -1.114402        1.000000        0.01863205        0.00326904        0.00096881
     141         -1.114039        1.000000        0.00092198        0.00580310        0.00132844
     142         -1.112381        1.000000        0.00389821        0.00038120        0.00017223
     143         -1.111588        1.000000        0.00473208        0.00175354        0.00050060
     144         -1.111356        1.000000        0.00297938        0.00389778        0.00086890
     145         -1.110913        1.000000        0.00794548        0.00117747        0.00052380
     146         -1.109631        1.000000        0.00381697        0.00152441        0.00030265
     147         -1.107338        1.000000        0.00529803        0.00061259        0.00017796
     148         -1.107163        1.000000        0.00021881        0.00004140        0.00001025
     149         -1.106911        1.000000        0.00180986        0.00141328        0.00041313
     150         -1.105904        1.000000        0.00081332        0.00149923        0.00038484
     151         -1.104513        1.000000        0.00013971        0.00279325        0.00071864
     152         -1.103753        1.000000        0.00170611        0.00270668        0.00069801
     153         -1.103233        1.000000        0.00262859        0.00156119        0.00070820
     154         -1.101116        1.000000        0.00135450        0.00208145        0.00054354
     155         -1.099878        1.000000        0.00005072        0.00232044        0.00081976
     156         -1.099527        1.000000        0.00010304        0.00129973        0.00049385
     157         -1.099360        1.000000        0.00155197        0.00559322        0.00194392
     158         -1.097449        1.000000        0.00116008        0.00250317        0.00075572
     159         -1.097246        1.000000        0.00018354        0.00828364        0.00288777
     160         -1.096336        1.000000        0.00054561        0.00046418        0.00015349
     161         -1.095776        1.000000        0.00000802        0.00038512        0.00012363
     162         -1.094258        1.000000        0.00010261        0.00245679        0.00093530
     163         -1.093701        1.000000        0.00146969        0.00445776        0.00179686
     164         -1.093107        1.000000        0.00000026        0.00419609        0.00146158
     165         -1.091600        1.000000        0.00017973        0.00060361        0.00023313
     166         -1.090890        1.000000        0.00208312        0.00484662        0.00136727
     167         -1.090283        1.000000        0.00010483        0.00046123        0.00015935
     168         -1.089378        1.000000        0.00004751        0.00244703        0.00096444
     169         -1.088506        1.000000        0.00038515        0.00669465        0.00250634
     170         -1.086931        1.000000        0.00167525        0.00052390        0.00018748
     171         -1.086367        1.000000        0.00095257        0.00236618        0.00087695
     172         -1.085327        1.000000        0.00016049        0.00193399        0.00066437
     173         -1.084766        1.000000        0.00374599        0.00050199        0.00012984
     174         -1.083961        1.000000        0.00045834        0.00022850        0.00005405
     175         -1.082920        1.000000        0.00054116        0.00516589        0.00150421
     176         -1.081700        1.000000        0.00331595        0.00225124        0.00073786
     177         -1.081031        1.000000        0.00385424        0.00073783        0.00027784
     178         -1.080558        1.000000        0.00006975        0.00166952        0.00070794
     179         -1.080415        1.000000        0.00028358        0.00170224        0.00053831
     180         -1.080047        1.000000        0.00350599        0.00119351        0.00063954
     181         -1.077309        1.000000        0.00015314        0.00123601        0.00041182
     182         -1.076601        1.000000        0.00027520        0.00035067        0.00013597
     183         -1.076342        1.000000        0.00030356        0.00118321        0.00038534
     184         -1.076154        1.000000        0.00007914        0.00057445        0.00026792
     185         -1.075469        1.000000        0.00342106        0.00147666        0.00070596
     186         -1.074904        1.000000        0.00079363        0.00144276        0.00063312
     187         -1.074160        1.000000        0.00030048        0.00201059        0.00065316
     188         -1.073364        1.000000        0.00000875        0.00011837        0.00005588
     189         -1.071841        1.000000        0.00008715        0.00051633        0.00017472
     190         -1.071436        1.000000        0.00017498        0.00185545        0.00077397
     191         -1.070358        1.000000        0.00000953        0.00031073        0.00011682
     192         -1.070160        1.000000        0.00007189        0.00104878        0.00042364
     193         -1.069551        1.000000        0.00000201        0.00147741        0.00063594
     194         -1.069042        1.000000        0.00003299        0.00123156        0.00052282
     195         -1.068018        1.000000        0.00011715        0.00210420        0.00084544
     196         -1.067683        1.000000        0.00000685        0.00067172        0.00024834
     197         -1.067094        1.000000        0.00007555        0.00375341        0.00146669
     198         -1.066200        1.000000        0.00012301        0.00579007        0.00227031
     199         -1.065105        1.000000        0.00001735        0.00623522        0.00266191
     200         -1.064600        1.000000        0.00045330        0.00496978        0.00216315
     201         -1.063825        1.000000        0.00001540        0.00322656        0.00138156
     202         -1.063672        1.000000        0.00005080        0.01063153        0.00442139
     203         -1.062915        1.000000        0.00017781        0.00006979        0.00003642
     204         -1.062259        1.000000        0.00000060        0.00466792        0.00195904
     205         -1.061986        1.000000        0.00001060        0.00610904        0.00259334
     206         -1.060822        1.000000        0.00002586        0.00074454        0.00026688
     207         -1.060230        1.000000        0.00033745        0.00785677        0.00322912
     208         -1.059971        1.000000        0.00001736        0.00550999        0.00233068
     209         -1.059399        1.000000        0.00042250        0.00813279        0.00323846
     210         -1.058798        1.000000        0.00010783        0.01321701        0.00532574
     211         -1.058498        1.000000        0.00011190        0.00039173        0.00022011
     212         -1.057049        1.000000        0.00004246        0.00723193        0.00285759
     213         -1.056896        1.000000        0.00011235        0.02064532        0.00834523
     214         -1.056403        1.000000        0.00001366        0.00367563        0.00150274
     215         -1.056079        1.000000        0.00014436        0.00451939        0.00179468
     216         -1.055624        1.000000        0.00007255        0.01193934        0.00466440
     217         -1.055288        1.000000        0.00004253        0.00070288        0.00030204
     218         -1.054828        1.000000        0.00003758        0.00208044        0.00093387
     219         -1.054413        1.000000        0.00002674        0.00811656        0.00301415
     220         -1.053990        1.000000        0.00001445        0.00069190        0.00029986
     221         -1.053598        1.000000        0.00000375        0.00698796        0.00269514
     222         -1.053387        1.000000        0.00000532        0.00041097        0.00018552
     223         -1.052953        1.000000        0.00002242        0.00819356        0.00351442
     224         -1.052779        1.000000        0.00003070        0.00308366        0.00142604
     225         -1.052376        1.000000        0.00000481        0.00440226        0.00184638
     226         -1.052297        1.000000        0.00000082        0.00077995        0.00028470
     227         -1.051819        1.000000        0.00003269        0.00591261        0.00222096
     228         -1.051536        1.000000        0.00000589        0.00023517        0.00010741
     229         -1.051232        1.000000        0.00004358        0.00132305        0.00049782
     230         -1.050581        1.000000        0.00000036        0.00276715        0.00101775
     231         -1.050140        1.000000        0.00046387        0.00858612        0.00379882
     232         -1.049834        1.000000        0.00000031        0.00048671        0.00020231
     233         -1.049588        1.000000        0.00009373        0.00430452        0.00169947
     234         -1.049506        1.000000        0.00000039        0.00060904        0.00022750
     235         -1.048565        1.000000        0.00006073        0.00011750        0.00003891
     236         -1.048103        1.000000        0.00007208        0.00053340        0.00024500
     237         -1.048023        1.000000        0.00034167        0.00589784        0.00254373
     238         -1.047651        1.000000        0.00006027        0.00368974        0.00166805
     239         -1.047305        1.000000        0.00002123        0.00354437        0.00135579
     240         -1.046707        1.000000        0.00000042        0.00115312        0.00051858
     241         -1.046592        1.000000        0.00000112        0.00295795        0.00128248
     242         -1.046281        1.000000        0.00003317        0.00177497        0.00070394
     243         -1.045974        1.000000        0.00000144        0.01460467        0.00629111
     244         -1.045866        1.000000        0.00000445        0.00015505        0.00007221
     245         -1.045771        1.000000        0.00000565        0.00155171        0.00067966
     246         -1.045301        1.000000        0.00005633        0.00120128        0.00061567
     247         -1.045020        1.000000        0.00000043        0.00090502        0.00032989
     248         -1.043956        1.000000        0.00000026        0.00135558        0.00057149
     249         -1.043818        1.000000        0.00000000        0.00284996        0.00123029
     250         -1.043244        1.000000        0.00000584        0.00034632        0.00016943
     251         -1.043119        1.000000        0.00000127        0.00036970        0.00017256
     252         -1.042993        1.000000        0.00000356        0.00013508        0.00005751
     253         -1.042515        1.000000        0.00000642        0.00020765        0.00009324
     254         -1.041302        1.000000        0.00005429        0.00110211        0.00047904
     255         -1.041116        1.000000        0.00006053        0.00327600        0.00135769
     256         -1.040594        1.000000        0.00000096        0.00006224        0.00002568
     257         -1.040094        1.000000        0.00001330        0.00103509        0.00039316
     258         -1.039599        1.000000        0.00000264        0.00039806        0.00015418
     259         -1.039408        1.000000        0.00007672        0.00523030        0.00232004
     260         -1.038970        1.000000        0.00004133        0.00271502        0.00116195
     261         -1.038561        1.000000        0.00000220        0.00021890        0.00010534
     262         -1.038022        1.000000        0.00000116        0.00002143        0.00000881
     263         -1.037841        1.000000        0.00000311        0.00007456        0.00003598
     264         -1.036991        1.000000        0.00023716        0.01549343        0.00721077
     265         -1.036854        1.000000        0.00100193        0.06443195        0.03023483
     266         -1.035910        1.000000        0.00001892        0.00191309        0.00088645
     267         -1.035115        1.000000        0.00001936        0.00460977        0.00211868
     268         -1.034275        1.000000        0.00000592        0.00200767        0.00100403
     269         -1.033697        1.000000        0.00000191        0.00035189        0.00016522
     270         -1.033444        1.000000        0.00001510        0.00620710        0.00324656
     271         -1.033385        1.000000        0.00001287        0.00327894        0.00163538
     272         -1.033262        1.000000        0.00000347        0.00103487        0.00054582
     273         -1.032346        1.000000        0.00001219        0.00229468        0.00120178
     274         -1.031626        1.000000        0.00000009        0.00001119        0.00000564
     275         -1.030746        1.000000        0.00000019        0.00000923        0.00000454
     276         -1.029780        1.000000        0.00000032        0.00002752        0.00001479
     277         -1.028980        1.000000        0.00000061        0.00000301        0.00000134
     278         -1.027492        1.000000        0.00008087        0.00133298        0.00064660
     279         -1.025795        1.000000        0.00006640        0.00181095        0.00083451
     280         -1.023990        1.000000        0.00000035        0.00030419        0.00013739
     281         -1.022755        1.000000        0.00000004        0.00000076        0.00000028
     282         -1.019871        1.000000        0.00000001        0.00000092        0.00000051
     283         -1.017737        1.000000        0.00018169        0.00286957        0.00162607
     284         -1.012409        1.000000        0.00000010        0.00000216        0.00000098
     285         -1.010522        1.000000        0.00000004        0.00000014        0.00000002
     286         -0.880961        1.000000        0.00000017        0.00000017        0.00000000
     287         -0.861761        1.000000        0.00000000        0.00000005        0.00000000
     288         -0.860652        1.000000        0.00000007        0.00000009        0.00000000
     289         -0.854811        1.000000        0.00000000        0.00000007        0.00000000
     290         -0.853189        1.000000        0.00000001        0.00000001        0.00000000
     291         -0.838407        1.000000        0.00000000        0.00000004        0.00000000
     292         -0.837131        1.000000        0.00000000        0.00000000        0.00000000
     293         -0.835422        1.000000        0.00000000        0.00000001        0.00000000
     294         -0.832873        1.000000        0.00000001        0.00000003        0.00000000
     295         -0.813092        1.000000        0.00000000        0.00000001        0.00000000
     296         -0.811309        1.000000        0.00000000        0.00000000        0.00000000
     297         -0.805633        1.000000        0.00000018        0.00000018        0.00000000
     298         -0.800994        1.000000        0.00000001        0.00000001        0.00000000
     299         -0.798544        1.000000        0.00000002        0.00000003        0.00000000
     300         -0.797176        1.000000        0.00000001        0.00000001        0.00000000
     301         -0.796065        1.000000        0.00000000        0.00000000        0.00000000
     302         -0.795247        1.000000        0.00000000        0.00000003        0.00000000
     303         -0.794465        1.000000        0.00000000        0.00000001        0.00000000
     304         -0.792558        1.000000        0.00000000        0.00000000        0.00000000
     305         -0.791532        1.000000        0.00000000        0.00000002        0.00000000
     306         -0.790931        1.000000        0.00000000        0.00000000        0.00000000
     307         -0.790366        1.000000        0.00000002        0.00000004        0.00000000