# Projected DOS for list 315 of 1 atoms, at iteration step i = 0, E(Fermi) =    -0.237583 a.u.
#     MO Eigenvalue [a.u.]      Occupation                 s                 p                 d                 f
       1         -3.115895        1.000000        0.00000006        0.00000008        0.00000019        0.00000001
       2         -3.112717        1.000000        0.00006720        0.00003356        0.00022364        0.00000118
       3         -3.112103        1.000000        0.00000070        0.00000039        0.00000051        0.00000010
       4         -3.111180        1.000000        0.00000009        0.00000023        0.00000505        0.00000028
       5         -3.110810        1.000000        0.00000062        0.00000057        0.00000246        0.00000056
       6         -3.110575        1.000000        0.00002290        0.00000702        0.00007033        0.00000562
       7         -3.110067        1.000000        0.00062845        0.00003003        0.00029359        0.00001125
       8         -3.109817        1.000000        0.02247577        0.00106066        0.00816367        0.00026940
       9         -3.109660        1.000000        0.00015102        0.00001161        0.00005209        0.00000259
      10         -3.108831        1.000000        0.01892871        0.00022608        0.00082438        0.00002757
      11         -3.108678        1.000000        0.00015703        0.00014685        0.00084313        0.00001428
      12         -3.108578        1.000000        0.00064911        0.00000103        0.00038593        0.00000385
      13         -3.108350        1.000000        0.06097399        0.00020351        0.00161978        0.00003309
      14         -3.108163        1.000000        0.25377828        0.00051471        0.00200319        0.00004958
      15         -3.107948        1.000000        0.14620045        0.00040861        0.00076831        0.00004627
      16         -3.107865        1.000000        0.00699914        0.00011866        0.00075475        0.00001597
      17         -3.107703        1.000000        0.00005363        0.00000718        0.00028329        0.00000684
      18         -3.107683        1.000000        0.00000498        0.00015650        0.00009669        0.00002300
      19         -3.107641        1.000000        0.02741455        0.00002643        0.00018194        0.00002074
      20         -3.107604        1.000000        0.01352584        0.00010637        0.00019224        0.00000632
      21         -3.107402        1.000000        0.10799780        0.00110009        0.00171607        0.00013947
      22         -3.107115        1.000000        0.15313804        0.00041741        0.00763192        0.00015882
      23         -3.107013        1.000000        0.00557441        0.00067729        0.00772245        0.00026196
      24         -3.106750        1.000000        0.00511503        0.00064180        0.01015850        0.00018741
      25         -3.106619        1.000000        0.03351130        0.00003419        0.00313301        0.00042726
      26         -3.106567        1.000000        0.00051044        0.00016446        0.00380766        0.00019399
      27         -3.106546        1.000000        0.00067463        0.00003612        0.00085355        0.00002592
      28         -3.106258        1.000000        0.00777157        0.00008677        0.00158628        0.00007283
      29         -3.106103        1.000000        0.00419490        0.00020033        0.00293973        0.00007827
      30         -3.104674        1.000000        0.00005152        0.00010583        0.00010506        0.00000411
      31         -1.775522        1.000000        0.00001421        0.00565186        0.00001645        0.00001577
      32         -1.773964        1.000000        0.00002406        0.00751417        0.00006181        0.00000820
      33         -1.773454        1.000000        0.00000021        0.00308816        0.00008437        0.00001036
      34         -1.773008        1.000000        0.00000342        0.00081715        0.00039845        0.00000499
      35         -1.772581        1.000000        0.00003068        0.00161311        0.00044888        0.00000102
      36         -1.772213        1.000000        0.00002250        0.02478959        0.00015429        0.00002685
      37         -1.771852        1.000000        0.00000187        0.01235304        0.00012616        0.00001549
      38         -1.771444        1.000000        0.00063494        0.02919916        0.00040616        0.00000978
      39         -1.771233        1.000000        0.00001313        0.03184919        0.00006215        0.00001234
      40         -1.770977        1.000000        0.00006803        0.03096548        0.00005504        0.00009327
      41         -1.770760        1.000000        0.00002389        0.08464702        0.00028582        0.00008139
      42         -1.770111        1.000000        0.00000160        0.01065814        0.00016347        0.00000417
      43         -1.770034        1.000000        0.00007382        0.00314735        0.00007076        0.00000094
      44         -1.769495        1.000000        0.00008992        0.00287970        0.00134822        0.00002081
      45         -1.769421        1.000000        0.00000188        0.02126887        0.00037947        0.00000455
      46         -1.769063        1.000000        0.00047648        0.01725680        0.00082563        0.00000317
      47         -1.768532        1.000000        0.00014818        0.02072000        0.00060054        0.00000278
      48         -1.768412        1.000000        0.00020761        0.00929636        0.00016818        0.00001947
      49         -1.767811        1.000000        0.00051501        0.05619574        0.00063286        0.00003840
      50         -1.767614        1.000000        0.00000848        0.12331599        0.00066418        0.00002578
      51         -1.767477        1.000000        0.00035782        0.12303573        0.00077949        0.00001328
      52         -1.765531        1.000000        0.00000063        0.01210483        0.00038256        0.00000811
      53         -1.765088        1.000000        0.00000111        0.00396124        0.00002009        0.00000238
      54         -1.764557        1.000000        0.00004262        0.01592071        0.00071953        0.00000222
      55         -1.763772        1.000000        0.00001916        0.00370364        0.00006232        0.00000232
      56         -1.763328        1.000000        0.00000012        0.00369086        0.00006971        0.00000460
      57         -1.762925        1.000000        0.00004488        0.03956351        0.00007070        0.00002900
      58         -1.762506        1.000000        0.00002224        0.00076769        0.00011578        0.00000458
      59         -1.762119        1.000000        0.00002189        0.00707526        0.00005161        0.00000458
      60         -1.762053        1.000000        0.00027270        0.01680559        0.00028687        0.00001382
      61         -1.761895        1.000000        0.00015588        0.00613871        0.00029754        0.00000573
      62         -1.761602        1.000000        0.00008294        0.01894906        0.00023622        0.00000364
      63         -1.761509        1.000000        0.00016383        0.05514183        0.00021236        0.00002364
      64         -1.761377        1.000000        0.00006501        0.00191267        0.00026888        0.00000142
      65         -1.761171        1.000000        0.00000169        0.02875023        0.00011304        0.00000970
      66         -1.760998        1.000000        0.00000014        0.01936499        0.00016010        0.00000736
      67         -1.760877        1.000000        0.00000406        0.07677420        0.00031915        0.00001135
      68         -1.760806        1.000000        0.00000804        0.04294322        0.00030838        0.00000389
      69         -1.760684        1.000000        0.00031519        0.01709503        0.00052013        0.00001404
      70         -1.760645        1.000000        0.00016955        0.01282151        0.00014423        0.00000248
      71         -1.760442        1.000000        0.00003448        0.02407085        0.00015620        0.00001048
      72         -1.760098        1.000000        0.00001676        0.00919296        0.00009112        0.00000697
      73         -1.759962        1.000000        0.00006904        0.01276806        0.00021787        0.00000638
      74         -1.759824        1.000000        0.00002332        0.08096934        0.00018556        0.00002148
      75         -1.759787        1.000000        0.00000436        0.03907151        0.00011369        0.00000612
      76         -1.759638        1.000000        0.00000678        0.00743192        0.00015361        0.00000138
      77         -1.759601        1.000000        0.00005542        0.11036391        0.00032885        0.00000458
      78         -1.759512        1.000000        0.00004292        0.00135422        0.00021749        0.00000226
      79         -1.759406        1.000000        0.00000937        0.08991726        0.00021503        0.00000372
      80         -1.759287        1.000000        0.00001522        0.01162438        0.00006700        0.00000567
      81         -1.759176        1.000000        0.00003903        0.02014616        0.00023474        0.00000140
      82         -1.758872        1.000000        0.00017967        0.01566713        0.00030700        0.00000308
      83         -1.758781        1.000000        0.00012152        0.06791052        0.00045721        0.00001670
      84         -1.758726        1.000000        0.00002659        0.05967113        0.00010067        0.00002642
      85         -1.758559        1.000000        0.00004001        0.00520959        0.00019995        0.00001991
      86         -1.758378        1.000000        0.00000760        0.11876932        0.00014023        0.00003785
      87         -1.758294        1.000000        0.00000002        0.00723538        0.00006064        0.00000153
      88         -1.758087        1.000000        0.00000094        0.00253107        0.00016841        0.00001777
      89         -1.757987        1.000000        0.00001676        0.00770526        0.00023402        0.00000758
      90         -1.757734        1.000000        0.00008023        0.02312261        0.00022557        0.00002150
      91         -1.757649        1.000000        0.00002649        0.02943645        0.00018158        0.00002009
      92         -1.757529        1.000000        0.00002854        0.05116389        0.00045244        0.00003934
      93         -1.757404        1.000000        0.00000009        0.08109391        0.00013286        0.00004337
      94         -1.757324        1.000000        0.00000928        0.02536019        0.00020311        0.00001050
      95         -1.757187        1.000000        0.00000903        0.01081783        0.00007839        0.00003739
      96         -1.757137        1.000000        0.00001557        0.00774570        0.00009400        0.00004698
      97         -1.756770        1.000000        0.00000034        0.01454859        0.00014279        0.00003581
      98         -1.756598        1.000000        0.00003607        0.03681914        0.00022501        0.00000856
      99         -1.756513        1.000000        0.00006886        0.07666121        0.00005604        0.00000710
     100         -1.756186        1.000000        0.00002769        0.08431623        0.00040736        0.00001795
     101         -1.755847        1.000000        0.00002135        0.09185016        0.00003103        0.00002515
     102         -1.755716        1.000000        0.00000278        0.08645800        0.00006199        0.00000516
     103         -1.755306        1.000000        0.00012484        0.03849401        0.00056783        0.00000326
     104         -1.755052        1.000000        0.00003621        0.04385490        0.00015600        0.00000904
     105         -1.754765        1.000000        0.00002826        0.00842934        0.00078645        0.00000892
     106         -1.754094        1.000000        0.00000070        0.00961135        0.00073483        0.00001514
     107         -1.753681        1.000000        0.00000064        0.01307844        0.00004331        0.00000409
     108         -1.753548        1.000000        0.00006434        0.09245201        0.00008855        0.00001353
     109         -1.753256        1.000000        0.00008806        0.00125786        0.00017971        0.00001829
     110         -1.752675        1.000000        0.00022682        0.09253827        0.00037270        0.00001504
     111         -1.752502        1.000000        0.00002442        0.04281656        0.00009620        0.00000521
     112         -1.752253        1.000000        0.00000803        0.04437430        0.00001678        0.00000943
     113         -1.751643        1.000000        0.00001580        0.11589272        0.00007891        0.00001404
     114         -1.751317        1.000000        0.00050934        0.00785330        0.00185240        0.00000092
     115         -1.749193        1.000000        0.00000026        0.00086496        0.00000050        0.00000347
     116         -1.748137        1.000000        0.00000016        0.00057746        0.00003272        0.00000321
     117         -1.747283        1.000000        0.00000238        0.00675264        0.00001422        0.00002840
     118         -1.745962        1.000000        0.00000153        0.00052247        0.00005496        0.00000218
     119         -1.745880        1.000000        0.00000028        0.00738767        0.00002017        0.00001271
     120         -1.744143        1.000000        0.00000278        0.05116374        0.00001769        0.00006294
     121         -1.145318        1.000000        0.00000001        0.00000001        0.00000000        0.00000000
     122         -1.141162        1.000000        0.00000001        0.00000000        0.00000000        0.00000000
     123         -1.135518        1.000000        0.00000014        0.00000007        0.00000009        0.00000001
     124         -1.134356        1.000000        0.00000002        0.00000001        0.00000000        0.00000000
     125         -1.132797        1.000000        0.00000001        0.00000001        0.00000001        0.00000000
     126         -1.131675        1.000000        0.00000003        0.00000001        0.00000003        0.00000000
     127         -1.130657        1.000000        0.00000001        0.00000000        0.00000001        0.00000000
     128         -1.129329        1.000000        0.00000000        0.00000000        0.00000001        0.00000000
     129         -1.127805        1.000000        0.00000000        0.00000000        0.00000001        0.00000000
     130         -1.126970        1.000000        0.00000000        0.00000001        0.00000002        0.00000000
     131         -1.125100        1.000000        0.00000009        0.00000004        0.00000009        0.00000001
     132         -1.124640        1.000000        0.00000000        0.00000000        0.00000000        0.00000000
     133         -1.122028        1.000000        0.00000001        0.00000001        0.00000002        0.00000000
     134         -1.120887        1.000000        0.00000001        0.00000000        0.00000001        0.00000000
     135         -1.119308        1.000000        0.00000007        0.00000004        0.00000007        0.00000001
     136         -1.118408        1.000000        0.00000000        0.00000000        0.00000000        0.00000000
     137         -1.117769        1.000000        0.00000001        0.00000000        0.00000001        0.00000000
     138         -1.116570        1.000000        0.00000002        0.00000001        0.00000004        0.00000000
     139         -1.115096        1.000000        0.00000001        0.00000000        0.00000001        0.00000000
     140         -1.114402        1.000000        0.00000001        0.00000001        0.00000002        0.00000000
     141         -1.114039        1.000000        0.00000001        0.00000000        0.00000001        0.00000000
     142         -1.112381        1.000000        0.00000000        0.00000000        0.00000003        0.00000000
     143         -1.111588        1.000000        0.00000000        0.00000000        0.00000001        0.00000000
     144         -1.111356        1.000000        0.00000007        0.00000003        0.00000006        0.00000000
     145         -1.110913        1.000000        0.00000000        0.00000000        0.00000000        0.00000000
     146         -1.109631        1.000000        0.00000001        0.00000000        0.00000000        0.00000000
     147         -1.107338        1.000000        0.00000000        0.00000000        0.00000001        0.00000000
     148         -1.107163        1.000000        0.00000001        0.00000000        0.00000000        0.00000000
     149         -1.106911        1.000000        0.00000000        0.00000000        0.00000003        0.00000000
     150         -1.105904        1.000000        0.00000000        0.00000000        0.00000000        0.00000000
     151         -1.104513        1.000000        0.00000001        0.00000000        0.00000003        0.00000000
     152         -1.103753        1.000000        0.00000002        0.00000002        0.00000007        0.00000000
     153         -1.103233        1.000000        0.00000000        0.00000000        0.00000000        0.00000000
     154         -1.101116        1.000000        0.00000000        0.00000000        0.00000003        0.00000000
     155         -1.099878        1.000000        0.00000001        0.00000001        0.00000002        0.00000000
     156         -1.099527        1.000000        0.00000000        0.00000001        0.00000002        0.00000000
     157         -1.099360        1.000000        0.00000000        0.00000000        0.00000000        0.00000000
     158         -1.097449        1.000000        0.00000000        0.00000000        0.00000001        0.00000000
     159         -1.097246        1.000000        0.00000000        0.00000000        0.00000001        0.00000000
     160         -1.096336        1.000000        0.00000001        0.00000001        0.00000001        0.00000000
     161         -1.095776        1.000000        0.00000000        0.00000001        0.00000001        0.00000000
     162         -1.094258        1.000000        0.00000001        0.00000001        0.00000001        0.00000000
     163         -1.093701        1.000000        0.00000000        0.00000000        0.00000001        0.00000000
     164         -1.093107        1.000000        0.00000001        0.00000000        0.00000002        0.00000000
     165         -1.091600        1.000000        0.00000000        0.00000000        0.00000000        0.00000000
     166         -1.090890        1.000000        0.00000002        0.00000001        0.00000004        0.00000000
     167         -1.090283        1.000000        0.00000000        0.00000000        0.00000000        0.00000000
     168         -1.089378        1.000000        0.00000000        0.00000001        0.00000003        0.00000000
     169         -1.088506        1.000000        0.00000000        0.00000000        0.00000001        0.00000000
     170         -1.086931        1.000000        0.00000000        0.00000000        0.00000002        0.00000000
     171         -1.086367        1.000000        0.00000000        0.00000000        0.00000002        0.00000000
     172         -1.085327        1.000000        0.00000000        0.00000000        0.00000002        0.00000000
     173         -1.084766        1.000000        0.00000000        0.00000000        0.00000000        0.00000000
     174         -1.083961        1.000000        0.00000000        0.00000000        0.00000000        0.00000000
     175         -1.082920        1.000000        0.00000001        0.00000000        0.00000001        0.00000000
     176         -1.081700        1.000000        0.00000000        0.00000000        0.00000000        0.00000000
     177         -1.081031        1.000000        0.00000000        0.00000000        0.00000002        0.00000000
     178         -1.080558        1.000000        0.00000001        0.00000000        0.00000003        0.00000000
     179         -1.080415        1.000000        0.00000001        0.00000002        0.00000006        0.00000001
     180         -1.080047        1.000000        0.00000000        0.00000000        0.00000001        0.00000000
     181         -1.077309        1.000000        0.00000004        0.00000003        0.00000013        0.00000001
     182         -1.076601        1.000000        0.00000000        0.00000000        0.00000001        0.00000000
     183         -1.076342        1.000000        0.00000000        0.00000000        0.00000004        0.00000000
     184         -1.076154        1.000000        0.00000001        0.00000000        0.00000005        0.00000000
     185         -1.075469        1.000000        0.00000000        0.00000001        0.00000006        0.00000001
     186         -1.074904        1.000000        0.00000000        0.00000000        0.00000000        0.00000000
     187         -1.074160        1.000000        0.00000001        0.00000001        0.00000003        0.00000000
     188         -1.073364        1.000000        0.00000000        0.00000000        0.00000002        0.00000000
     189         -1.071841        1.000000        0.00000001        0.00000001        0.00000003        0.00000000
     190         -1.071436        1.000000        0.00000001        0.00000001        0.00000001        0.00000000
     191         -1.070358        1.000000        0.00000004        0.00000003        0.00000005        0.00000000
     192         -1.070160        1.000000        0.00000001        0.00000003        0.00000009        0.00000000
     193         -1.069551        1.000000        0.00000001        0.00000001        0.00000004        0.00000000
     194         -1.069042        1.000000        0.00000000        0.00000000        0.00000001        0.00000000
     195         -1.068018        1.000000        0.00000000        0.00000001        0.00000005        0.00000000
     196         -1.067683        1.000000        0.00000000        0.00000001        0.00000008        0.00000001
     197         -1.067094        1.000000        0.00000000        0.00000000        0.00000001        0.00000000
     198         -1.066200        1.000000        0.00000000        0.00000000        0.00000001        0.00000000
     199         -1.065105        1.000000        0.00000005        0.00000001        0.00000001        0.00000001
     200         -1.064600        1.000000        0.00000000        0.00000000        0.00000004        0.00000000
     201         -1.063825        1.000000        0.00000014        0.00000002        0.00000008        0.00000003
     202         -1.063672        1.000000        0.00000008        0.00000002        0.00000005        0.00000001
     203         -1.062915        1.000000        0.00000002        0.00000001        0.00000001        0.00000001
     204         -1.062259        1.000000        0.00000000        0.00000000        0.00000001        0.00000000
     205         -1.061986        1.000000        0.00000005        0.00000002        0.00000015        0.00000003
     206         -1.060822        1.000000        0.00000000        0.00000000        0.00000005        0.00000001
     207         -1.060230        1.000000        0.00000002        0.00000002        0.00000009        0.00000002
     208         -1.059971        1.000000        0.00000002        0.00000004        0.00000037        0.00000006
     209         -1.059399        1.000000        0.00000000        0.00000000        0.00000001        0.00000000
     210         -1.058798        1.000000        0.00000000        0.00000000        0.00000001        0.00000000
     211         -1.058498        1.000000        0.00000001        0.00000001        0.00000011        0.00000003
     212         -1.057049        1.000000        0.00000000        0.00000001        0.00000013        0.00000003
     213         -1.056896        1.000000        0.00000000        0.00000000        0.00000006        0.00000001
     214         -1.056403        1.000000        0.00000000        0.00000001        0.00000015        0.00000005
     215         -1.056079        1.000000        0.00000000        0.00000000        0.00000000        0.00000000
     216         -1.055624        1.000000        0.00000001        0.00000001        0.00000002        0.00000001
     217         -1.055288        1.000000        0.00000000        0.00000000        0.00000001        0.00000000
     218         -1.054828        1.000000        0.00000000        0.00000001        0.00000001        0.00000000
     219         -1.054413        1.000000        0.00000000        0.00000001        0.00000007        0.00000001
     220         -1.053990        1.000000        0.00000001        0.00000002        0.00000015        0.00000004
     221         -1.053598        1.000000        0.00000000        0.00000000        0.00000001        0.00000000
     222         -1.053387        1.000000        0.00000000        0.00000000        0.00000002        0.00000000
     223         -1.052953        1.000000        0.00000000        0.00000000        0.00000001        0.00000000
     224         -1.052779        1.000000        0.00000000        0.00000000        0.00000002        0.00000000
     225         -1.052376        1.000000        0.00000001        0.00000001        0.00000008        0.00000001
     226         -1.052297        1.000000        0.00000000        0.00000001        0.00000001        0.00000000
     227         -1.051819        1.000000        0.00000000        0.00000000        0.00000004        0.00000001
     228         -1.051536        1.000000        0.00000004        0.00000002        0.00000084        0.00000022
     229         -1.051232        1.000000        0.00000001        0.00000001        0.00000002        0.00000001
     230         -1.050581        1.000000        0.00000000        0.00000000        0.00000002        0.00000000
     231         -1.050140        1.000000        0.00000002        0.00000002        0.00000016        0.00000004
     232         -1.049834        1.000000        0.00000000        0.00000000        0.00000002        0.00000000
     233         -1.049588        1.000000        0.00000000        0.00000000        0.00000001        0.00000000
     234         -1.049506        1.000000        0.00000000        0.00000000        0.00000001        0.00000000
     235         -1.048565        1.000000        0.00000000        0.00000001        0.00000001        0.00000000
     236         -1.048103        1.000000        0.00000000        0.00000001        0.00000019        0.00000005
     237         -1.048023        1.000000        0.00000001        0.00000001        0.00000032        0.00000009
     238         -1.047651        1.000000        0.00000000        0.00000000        0.00000006        0.00000002
     239         -1.047305        1.000000        0.00000001        0.00000000        0.00000025        0.00000007
     240         -1.046707        1.000000        0.00000001        0.00000001        0.00000014        0.00000004
     241         -1.046592        1.000000        0.00000001        0.00000002        0.00000013        0.00000004
     242         -1.046281        1.000000        0.00000000        0.00000000        0.00000001        0.00000000
     243         -1.045974        1.000000        0.00000000        0.00000002        0.00000004        0.00000000
     244         -1.045866        1.000000        0.00000000        0.00000000        0.00000002        0.00000001
     245         -1.045771        1.000000        0.00000001        0.00000001        0.00000003        0.00000000
     246         -1.045301        1.000000        0.00000001        0.00000002        0.00000002        0.00000001
     247         -1.045020        1.000000        0.00000002        0.00000001        0.00000019        0.00000003
     248         -1.043956        1.000000        0.00000004        0.00000010        0.00000008        0.00000002
     249         -1.043818        1.000000        0.00000000        0.00000001        0.00000008        0.00000001
     250         -1.043244        1.000000        0.00000001        0.00000003        0.00000007        0.00000001
     251         -1.043119        1.000000        0.00000000        0.00000000        0.00000001        0.00000000
     252         -1.042993        1.000000        0.00000001        0.00000002        0.00000004        0.00000001
     253         -1.042515        1.000000        0.00000003        0.00000008        0.00000012        0.00000002
     254         -1.041302        1.000000        0.00000000        0.00000000        0.00000006        0.00000002
     255         -1.041116        1.000000        0.00000001        0.00000000        0.00000022        0.00000006
     256         -1.040594        1.000000        0.00000000        0.00000000        0.00000001        0.00000000
     257         -1.040094        1.000000        0.00000001        0.00000000        0.00000018        0.00000006
     258         -1.039599        1.000000        0.00000000        0.00000000        0.00000005        0.00000001
     259         -1.039408        1.000000        0.00000000        0.00000000        0.00000009        0.00000002