# Projected DOS for list 361 of 1 atoms, at iteration step i = 0, E(Fermi) =    -0.237583 a.u.
#     MO Eigenvalue [a.u.]      Occupation                 s                 p                 d
       1         -3.115895        1.000000        0.00000013        0.00000029        0.00000034
       2         -3.112717        1.000000        0.00000009        0.00000044        0.00000024
       3         -3.112103        1.000000        0.00000003        0.00000001        0.00000001
       4         -3.111180        1.000000        0.00000001        0.00000000        0.00000000
       5         -3.110810        1.000000        0.00000009        0.00000006        0.00000013
       6         -3.110575        1.000000        0.00000001        0.00000003        0.00000003
       7         -3.110067        1.000000        0.00000033        0.00000137        0.00000119
       8         -3.109817        1.000000        0.00000038        0.00000195        0.00000114
       9         -3.109660        1.000000        0.00000002        0.00000012        0.00000006
      10         -3.108831        1.000000        0.00000001        0.00000005        0.00000002
      11         -3.108678        1.000000        0.00000000        0.00000006        0.00000004
      12         -3.108578        1.000000        0.00000001        0.00000005        0.00000001
      13         -3.108350        1.000000        0.00000000        0.00000005        0.00000001
      14         -3.108163        1.000000        0.00000003        0.00000022        0.00000011
      15         -3.107948        1.000000        0.00000001        0.00000004        0.00000002
      16         -3.107865        1.000000        0.00000000        0.00000017        0.00000013
      17         -3.107703        1.000000        0.00000006        0.00000042        0.00000038
      18         -3.107683        1.000000        0.00000000        0.00000003        0.00000002
      19         -3.107641        1.000000        0.00000011        0.00000023        0.00000024
      20         -3.107604        1.000000        0.00000003        0.00000012        0.00000013
      21         -3.107402        1.000000        0.00000001        0.00000003        0.00000002
      22         -3.107115        1.000000        0.00000000        0.00000003        0.00000001
      23         -3.107013        1.000000        0.00000001        0.00000012        0.00000005
      24         -3.106750        1.000000        0.00000001        0.00000008        0.00000002
      25         -3.106619        1.000000        0.00000000        0.00000007        0.00000003
      26         -3.106567        1.000000        0.00000000        0.00000002        0.00000000
      27         -3.106546        1.000000        0.00000000        0.00000000        0.00000000
      28         -3.106258        1.000000        0.00000013        0.00000106        0.00000020
      29         -3.106103        1.000000        0.00000001        0.00000020        0.00000004
      30         -3.104674        1.000000        0.00000000        0.00000000        0.00000000
      31         -1.775522        1.000000        0.00000000        0.00000005        0.00000001
      32         -1.773964        1.000000        0.00000001        0.00000003        0.00000001
      33         -1.773454        1.000000        0.00000001        0.00000010        0.00000001
      34         -1.773008        1.000000        0.00000001        0.00000004        0.00000000
      35         -1.772581        1.000000        0.00000000        0.00000000        0.00000000
      36         -1.772213        1.000000        0.00000002        0.00000007        0.00000001
      37         -1.771852        1.000000        0.00000001        0.00000005        0.00000001
      38         -1.771444        1.000000        0.00000001        0.00000009        0.00000003
      39         -1.771233        1.000000        0.00000006        0.00000027        0.00000004
      40         -1.770977        1.000000        0.00000002        0.00000007        0.00000001
      41         -1.770760        1.000000        0.00000000        0.00000001        0.00000000
      42         -1.770111        1.000000        0.00000006        0.00000021        0.00000002
      43         -1.770034        1.000000        0.00000002        0.00000014        0.00000001
      44         -1.769495        1.000000        0.00000000        0.00000002        0.00000000
      45         -1.769421        1.000000        0.00000000        0.00000004        0.00000001
      46         -1.769063        1.000000        0.00000004        0.00000016        0.00000002
      47         -1.768532        1.000000        0.00000000        0.00000002        0.00000000
      48         -1.768412        1.000000        0.00000000        0.00000002        0.00000000
      49         -1.767811        1.000000        0.00000002        0.00000011        0.00000002
      50         -1.767614        1.000000        0.00000000        0.00000001        0.00000000
      51         -1.767477        1.000000        0.00000001        0.00000005        0.00000001
      52         -1.765531        1.000000        0.00000001        0.00000008        0.00000002
      53         -1.765088        1.000000        0.00000000        0.00000002        0.00000000
      54         -1.764557        1.000000        0.00000000        0.00000002        0.00000000
      55         -1.763772        1.000000        0.00000002        0.00000016        0.00000001
      56         -1.763328        1.000000        0.00000000        0.00000001        0.00000000
      57         -1.762925        1.000000        0.00000001        0.00000005        0.00000001
      58         -1.762506        1.000000        0.00000000        0.00000000        0.00000000
      59         -1.762119        1.000000        0.00000000        0.00000000        0.00000001
      60         -1.762053        1.000000        0.00000001        0.00000002        0.00000001
      61         -1.761895        1.000000        0.00000001        0.00000005        0.00000004
      62         -1.761602        1.000000        0.00000003        0.00000021        0.00000005
      63         -1.761509        1.000000        0.00000000        0.00000002        0.00000001
      64         -1.761377        1.000000        0.00000000        0.00000003        0.00000000
      65         -1.761171        1.000000        0.00000001        0.00000003        0.00000001
      66         -1.760998        1.000000        0.00000000        0.00000001        0.00000001
      67         -1.760877        1.000000        0.00000000        0.00000001        0.00000000
      68         -1.760806        1.000000        0.00000004        0.00000018        0.00000002
      69         -1.760684        1.000000        0.00000000        0.00000002        0.00000000
      70         -1.760645        1.000000        0.00000001        0.00000005        0.00000001
      71         -1.760442        1.000000        0.00000000        0.00000001        0.00000000
      72         -1.760098        1.000000        0.00000001        0.00000004        0.00000001
      73         -1.759962        1.000000        0.00000000        0.00000000        0.00000000
      74         -1.759824        1.000000        0.00000003        0.00000009        0.00000002
      75         -1.759787        1.000000        0.00000000        0.00000005        0.00000003
      76         -1.759638        1.000000        0.00000007        0.00000042        0.00000012
      77         -1.759601        1.000000        0.00000000        0.00000001        0.00000001
      78         -1.759512        1.000000        0.00000003        0.00000027        0.00000011
      79         -1.759406        1.000000        0.00000000        0.00000002        0.00000001
      80         -1.759287        1.000000        0.00000001        0.00000005        0.00000001
      81         -1.759176        1.000000        0.00000003        0.00000011        0.00000002
      82         -1.758872        1.000000        0.00000001        0.00000003        0.00000001
      83         -1.758781        1.000000        0.00000001        0.00000004        0.00000003
      84         -1.758726        1.000000        0.00000002        0.00000006        0.00000001
      85         -1.758559        1.000000        0.00000002        0.00000004        0.00000005
      86         -1.758378        1.000000        0.00000000        0.00000000        0.00000000
      87         -1.758294        1.000000        0.00000000        0.00000000        0.00000000
      88         -1.758087        1.000000        0.00000000        0.00000001        0.00000001
      89         -1.757987        1.000000        0.00000000        0.00000001        0.00000001
      90         -1.757734        1.000000        0.00000000        0.00000001        0.00000000
      91         -1.757649        1.000000        0.00000001        0.00000004        0.00000001
      92         -1.757529        1.000000        0.00000000        0.00000000        0.00000001
      93         -1.757404        1.000000        0.00000000        0.00000000        0.00000000
      94         -1.757324        1.000000        0.00000001        0.00000003        0.00000000
      95         -1.757187        1.000000        0.00000000        0.00000001        0.00000001
      96         -1.757137        1.000000        0.00000000        0.00000002        0.00000001
      97         -1.756770        1.000000        0.00000000        0.00000002        0.00000000
      98         -1.756598        1.000000        0.00000000        0.00000000        0.00000000
      99         -1.756513        1.000000        0.00000000        0.00000001        0.00000000
     100         -1.756186        1.000000        0.00000001        0.00000003        0.00000001
     101         -1.755847        1.000000        0.00000000        0.00000001        0.00000001
     102         -1.755716        1.000000        0.00000001        0.00000003        0.00000000
     103         -1.755306        1.000000        0.00000001        0.00000008        0.00000002
     104         -1.755052        1.000000        0.00000001        0.00000004        0.00000001
     105         -1.754765        1.000000        0.00000001        0.00000003        0.00000000
     106         -1.754094        1.000000        0.00000000        0.00000002        0.00000000
     107         -1.753681        1.000000        0.00000000        0.00000002        0.00000000
     108         -1.753548        1.000000        0.00000001        0.00000006        0.00000001
     109         -1.753256        1.000000        0.00000000        0.00000002        0.00000000
     110         -1.752675        1.000000        0.00000000        0.00000003        0.00000001
     111         -1.752502        1.000000        0.00000000        0.00000003        0.00000001
     112         -1.752253        1.000000        0.00000000        0.00000000        0.00000000
     113         -1.751643        1.000000        0.00000000        0.00000000        0.00000000
     114         -1.751317        1.000000        0.00000000        0.00000000        0.00000000
     115         -1.749193        1.000000        0.00000000        0.00000000        0.00000000
     116         -1.748137        1.000000        0.00000000        0.00000000        0.00000000
     117         -1.747283        1.000000        0.00000000        0.00000000        0.00000000
     118         -1.745962        1.000000        0.00000000        0.00000002        0.00000000
     119         -1.745880        1.000000        0.00000000        0.00000000        0.00000000
     120         -1.744143        1.000000        0.00000000        0.00000000        0.00000000
     121         -1.145318        1.000000        0.00000773        0.00000427        0.00000044
     122         -1.141162        1.000000        0.00002113        0.00001142        0.00000182
     123         -1.135518        1.000000        0.00000005        0.00000097        0.00000051
     124         -1.134356        1.000000        0.00018015        0.00003750        0.00000351
     125         -1.132797        1.000000        0.00004605        0.00001060        0.00000104
     126         -1.131675        1.000000        0.00000011        0.00000108        0.00000078
     127         -1.130657        1.000000        0.00000089        0.00000022        0.00000002
     128         -1.129329        1.000000        0.00000027        0.00000196        0.00000027
     129         -1.127805        1.000000        0.00001159        0.00000149        0.00000018
     130         -1.126970        1.000000        0.00063750        0.00007635        0.00000699
     131         -1.125100        1.000000        0.00005082        0.00000439        0.00000017
     132         -1.124640        1.000000        0.00001829        0.00000541        0.00000224
     133         -1.122028        1.000000        0.00013907        0.00001370        0.00000351
     134         -1.120887        1.000000        0.00003852        0.00000924        0.00000546
     135         -1.119308        1.000000        0.00000322        0.00000761        0.00000924
     136         -1.118408        1.000000        0.00000912        0.00001104        0.00000651
     137         -1.117769        1.000000        0.00001754        0.00002776        0.00000607
     138         -1.116570        1.000000        0.00018481        0.00003897        0.00001857
     139         -1.115096        1.000000        0.00000988        0.00002975        0.00000752
     140         -1.114402        1.000000        0.00009356        0.00002594        0.00000408
     141         -1.114039        1.000000        0.00001022        0.00003335        0.00001912
     142         -1.112381        1.000000        0.00001500        0.00000286        0.00000093
     143         -1.111588        1.000000        0.00001070        0.00000355        0.00000187
     144         -1.111356        1.000000        0.00000382        0.00002072        0.00002315
     145         -1.110913        1.000000        0.00015322        0.00002121        0.00000784
     146         -1.109631        1.000000        0.00001219        0.00001704        0.00001335
     147         -1.107338        1.000000        0.00007197        0.00000356        0.00000097
     148         -1.107163        1.000000        0.00001091        0.00000215        0.00000076
     149         -1.106911        1.000000        0.00011578        0.00001118        0.00000170
     150         -1.105904        1.000000        0.00007912        0.00000771        0.00000223
     151         -1.104513        1.000000        0.00017479        0.00001859        0.00000289
     152         -1.103753        1.000000        0.00000180        0.00000117        0.00000115
     153         -1.103233        1.000000        0.00000770        0.00001203        0.00000782
     154         -1.101116        1.000000        0.00037307        0.00002278        0.00001375
     155         -1.099878        1.000000        0.00010941        0.00000793        0.00000406
     156         -1.099527        1.000000        0.00030062        0.00003206        0.00000748
     157         -1.099360        1.000000        0.00129314        0.00007306        0.00001003
     158         -1.097449        1.000000        0.00002338        0.00000922        0.00000419
     159         -1.097246        1.000000        0.00000994        0.00002290        0.00000865
     160         -1.096336        1.000000        0.00000871        0.00000225        0.00000149
     161         -1.095776        1.000000        0.00019032        0.00000927        0.00000135
     162         -1.094258        1.000000        0.00023479        0.00002250        0.00000297
     163         -1.093701        1.000000        0.00057684        0.00002132        0.00000281
     164         -1.093107        1.000000        0.00002863        0.00000666        0.00000780
     165         -1.091600        1.000000        0.00012901        0.00001373        0.00000166
     166         -1.090890        1.000000        0.00002442        0.00000299        0.00000117
     167         -1.090283        1.000000        0.00000871        0.00000430        0.00000089
     168         -1.089378        1.000000        0.00000511        0.00001532        0.00000770
     169         -1.088506        1.000000        0.00075728        0.00002075        0.00000134
     170         -1.086931        1.000000        0.00009890        0.00001607        0.00000449
     171         -1.086367        1.000000        0.00235029        0.00007383        0.00000200
     172         -1.085327        1.000000        0.00129178        0.00007358        0.00001922
     173         -1.084766        1.000000        0.00028804        0.00000901        0.00000205
     174         -1.083961        1.000000        0.00000710        0.00000189        0.00000063
     175         -1.082920        1.000000        0.00137936        0.00004821        0.00000901
     176         -1.081700        1.000000        0.00227074        0.00008717        0.00001143
     177         -1.081031        1.000000        0.00120335        0.00003505        0.00000382
     178         -1.080558        1.000000        0.00038835        0.00001706        0.00000529
     179         -1.080415        1.000000        0.00001573        0.00001433        0.00000536
     180         -1.080047        1.000000        0.00009782        0.00003062        0.00001031
     181         -1.077309        1.000000        0.02707333        0.00087899        0.00013294
     182         -1.076601        1.000000        0.00082677        0.00004225        0.00001642
     183         -1.076342        1.000000        0.00274488        0.00008608        0.00000822
     184         -1.076154        1.000000        0.00695796        0.00024632        0.00005309
     185         -1.075469        1.000000        0.00031830        0.00004198        0.00001097
     186         -1.074904        1.000000        0.00000996        0.00000801        0.00000322
     187         -1.074160        1.000000        0.00053052        0.00003684        0.00000660
     188         -1.073364        1.000000        0.00002571        0.00000437        0.00000078
     189         -1.071841        1.000000        0.04889933        0.00144515        0.00013891
     190         -1.071436        1.000000        0.00373478        0.00010027        0.00000571
     191         -1.070358        1.000000        0.05223968        0.00142355        0.00010508
     192         -1.070160        1.000000        0.12092110        0.00323088        0.00025316
     193         -1.069551        1.000000        0.04027256        0.00110247        0.00009394
     194         -1.069042        1.000000        0.00101237        0.00002986        0.00000585
     195         -1.068018        1.000000        0.01726587        0.00047408        0.00004216
     196         -1.067683        1.000000        0.00193753        0.00005136        0.00000346
     197         -1.067094        1.000000        0.00126134        0.00003712        0.00000957
     198         -1.066200        1.000000        0.01198202        0.00035256        0.00005076
     199         -1.065105        1.000000        0.00233911        0.00007019        0.00001815
     200         -1.064600        1.000000        0.01154061        0.00028884        0.00001522
     201         -1.063825        1.000000        0.00411756        0.00011990        0.00001680
     202         -1.063672        1.000000        0.03322495        0.00088529        0.00007519
     203         -1.062915        1.000000        0.00632510        0.00016132        0.00001135
     204         -1.062259        1.000000        0.00212189        0.00006067        0.00000978
     205         -1.061986        1.000000        0.00127583        0.00004155        0.00000336
     206         -1.060822        1.000000        0.00040935        0.00001811        0.00000509
     207         -1.060230        1.000000        0.00597636        0.00015034        0.00001288
     208         -1.059971        1.000000        0.00000174        0.00000979        0.00000898
     209         -1.059399        1.000000        0.00567464        0.00017838        0.00001146
     210         -1.058798        1.000000        0.00053942        0.00001167        0.00000225
     211         -1.058498        1.000000        0.00357663        0.00009120        0.00001235
     212         -1.057049        1.000000        0.00054822        0.00001466        0.00000025
     213         -1.056896        1.000000        0.00071739        0.00001718        0.00000278
     214         -1.056403        1.000000        0.00051221        0.00001164        0.00000088
     215         -1.056079        1.000000        0.00017184        0.00000508        0.00000289
     216         -1.055624        1.000000        0.00287899        0.00006648        0.00000511
     217         -1.055288        1.000000        0.00015486        0.00000338        0.00000048
     218         -1.054828        1.000000        0.00003788        0.00000252        0.00000046
     219         -1.054413        1.000000        0.00054651        0.00001520        0.00000531
     220         -1.053990        1.000000        0.00098823        0.00002298        0.00000317
     221         -1.053598        1.000000        0.00060108        0.00001709        0.00000434
     222         -1.053387        1.000000        0.00469425        0.00012466        0.00003356
     223         -1.052953        1.000000        0.00009768        0.00000338        0.00000211
     224         -1.052779        1.000000        0.00052764        0.00001525        0.00000821
     225         -1.052376        1.000000        0.00042574        0.00001630        0.00000496
     226         -1.052297        1.000000        0.00021874        0.00000550        0.00000087
     227         -1.051819        1.000000        0.00010374        0.00000402        0.00000228
     228         -1.051536        1.000000        0.00003248        0.00000610        0.00000210
     229         -1.051232        1.000000        0.00005753        0.00000164        0.00000092
     230         -1.050581        1.000000        0.00002066        0.00000466        0.00000004
     231         -1.050140        1.000000        0.00007389        0.00001882        0.00000105
     232         -1.049834        1.000000        0.00009938        0.00000393        0.00000016
     233         -1.049588        1.000000        0.00000340        0.00000043        0.00000009
     234         -1.049506        1.000000        0.00002653        0.00000111        0.00000026
     235         -1.048565        1.000000        0.00140951        0.00004806        0.00000623
     236         -1.048103        1.000000        0.00074828        0.00002417        0.00000416
     237         -1.048023        1.000000        0.00001424        0.00000131        0.00000038
     238         -1.047651        1.000000        0.00106319        0.00003990        0.00000395
     239         -1.047305        1.000000        0.00000732        0.00000035        0.00000016
     240         -1.046707        1.000000        0.00017824        0.00000683        0.00000110
     241         -1.046592        1.000000        0.00009063        0.00000321        0.00000051
     242         -1.046281        1.000000        0.00000030        0.00000010        0.00000005
     243         -1.045974        1.000000        0.00002614        0.00000075        0.00000013
     244         -1.045866        1.000000        0.00007832        0.00000489        0.00000134
     245         -1.045771        1.000000        0.00001782        0.00000102        0.00000108
     246         -1.045301        1.000000        0.00000484        0.00000079        0.00000028
     247         -1.045020        1.000000        0.00000397        0.00000086        0.00000074
     248         -1.043956        1.000000        0.00000217        0.00000012        0.00000002
     249         -1.043818        1.000000        0.00010928        0.00000816        0.00000261
     250         -1.043244        1.000000        0.00004273        0.00000200        0.00000075
     251         -1.043119        1.000000        0.00000051        0.00000053        0.00000010
     252         -1.042993        1.000000        0.00000610        0.00000024        0.00000011
     253         -1.042515        1.000000        0.00000025        0.00000128        0.00000019
     254         -1.041302        1.000000        0.00008962        0.00001297        0.00000428
     255         -1.041116        1.000000        0.00015880        0.00002305        0.00000760
     256         -1.040594        1.000000        0.00000017        0.00000005        0.00000006
     257         -1.040094        1.000000        0.00014620        0.00001345        0.00000556
     258         -1.039599        1.000000        0.00007448        0.00000996        0.00000358
     259         -1.039408        1.000000        0.00009716        0.00003774        0.00000738
     260         -1.038970        1.000000        0.00012449        0.00002759        0.00000667
     261         -1.038561        1.000000        0.00001861        0.00000305        0.00000095
     262         -1.038022        1.000000        0.00001030        0.00000189        0.00000052
     263         -1.037841        1.000000        0.00000416        0.00000167        0.00000026
     264         -1.036991        1.000000        0.00003896        0.00000999        0.00000197
     265         -1.036854        1.000000        0.00033017        0.00007903        0.00001676
     266         -1.035910        1.000000        0.00000785        0.00000198        0.00000041
     267         -1.035115        1.000000        0.00053635        0.00009440        0.00002488
     268         -1.034275        1.000000        0.00024948        0.00003678        0.00001112
     269         -1.033697        1.000000        0.00012876        0.00002072        0.00000580
     270         -1.033444        1.000000        0.00436143        0.00074714        0.00020900
     271         -1.033385        1.000000        0.00459778        0.00079610        0.00021986
     272         -1.033262        1.000000        0.00049082        0.00008379        0.00002331
     273         -1.032346        1.000000        0.00631597        0.00116696        0.00030891
     274         -1.031626        1.000000        0.00000154        0.00000040        0.00000009
     275         -1.030746        1.000000        0.00000033        0.00000013        0.00000003
     276         -1.029780        1.000000        0.00000006        0.00000001        0.00000001
     277         -1.028980        1.000000        0.00000102        0.00000005        0.00000004
     278         -1.027492        1.000000        0.00001542        0.00001470        0.00000205
     279         -1.025795        1.000000        0.00040287        0.00001158        0.00001198
     280         -1.023990        1.000000        0.00003666        0.00000764        0.00000227
     281         -1.022755        1.000000        0.00000080        0.00000005        0.00000003
     282         -1.019871        1.000000        0.00000000        0.00000000        0.00000000
     283         -1.017737        1.000000        0.00001173        0.00000193        0.00000065
     284         -1.012409        1.000000        0.00000001        0.00000002        0.00000001
     285         -1.010522        1.000000        0.00000000        0.00000000        0.00000000
     286         -0.880961        1.000000        0.00000531        0.00000941        0.00000347
     287         -0.861761        1.000000        0.00000373        0.00001251        0.00000346
     288         -0.860652        1.000000        0.00001037        0.00001943        0.00000693
     289         -0.854811        1.000000        0.00000977        0.00001628        0.00000558
     290         -0.853189        1.000000        0.00000093        0.00000137        0.00000082
     291         -0.838407        1.000000        0.00001262        0.00002564        0.00000715
     292         -0.837131        1.000000        0.00000176        0.00001041        0.00000242
     293         -0.835422        1.000000        0.00000555        0.00000799        0.00000313
     294         -0.832873        1.000000        0.00000000        0.00000019        0.00000025
     295         -0.813092        1.000000        0.00000052        0.00000185        0.00000063
     296         -0.811309        1.000000        0.00000393        0.00001435        0.00000346
     297         -0.805633        1.000000        0.00000767        0.00001994        0.00000567
     298         -0.800994        1.000000        0.00000232        0.00001235        0.00000233
     299         -0.798544        1.000000        0.00001195        0.00003453        0.00000694
     300         -0.797176        1.000000        0.00000031        0.00000124        0.00000059
     301         -0.796065        1.000000        0.00001188        0.00005719        0.00001218
     302         -0.795247        1.000000        0.00004186        0.00008138        0.00001786
     303         -0.794465        1.000000        0.00000228        0.00000490        0.00000086
     304         -0.792558        1.000000        0.00000036        0.00000103        0.00000029
     305         -0.791532        1.000000        0.00000003        0.00000039        0.00000011
     306         -0.790931        1.000000        0.00000060        0.00000262        0.00000065
     307         -0.790366        1.000000        0.00000128        0.00000230        0.00000073