# Projected DOS for list 246 of 1 atoms, at iteration step i = 0, E(Fermi) =    -0.237583 a.u.
#     MO Eigenvalue [a.u.]      Occupation                 s                 p                 d
       1         -3.115895        1.000000        0.00005254        0.00018220        0.00001490
       2         -3.112717        1.000000        0.00000084        0.00000604        0.00000051
       3         -3.112103        1.000000        0.00328934        0.00422409        0.00016527
       4         -3.111180        1.000000        0.00023966        0.00118818        0.00012471
       5         -3.110810        1.000000        0.00177029        0.00575377        0.00067927
       6         -3.110575        1.000000        0.00005440        0.00057228        0.00008298
       7         -3.110067        1.000000        0.00015993        0.00054465        0.00006190
       8         -3.109817        1.000000        0.00000270        0.00001520        0.00000176
       9         -3.109660        1.000000        0.00000350        0.00001772        0.00000304
      10         -3.108831        1.000000        0.00000155        0.00002571        0.00000503
      11         -3.108678        1.000000        0.00001605        0.00008118        0.00000928
      12         -3.108578        1.000000        0.00001307        0.00007009        0.00001337
      13         -3.108350        1.000000        0.00010383        0.00019952        0.00002809
      14         -3.108163        1.000000        0.00000215        0.00001114        0.00000092
      15         -3.107948        1.000000        0.00002813        0.00006582        0.00000858
      16         -3.107865        1.000000        0.00002532        0.00005336        0.00001373
      17         -3.107703        1.000000        0.00003612        0.00015722        0.00002234
      18         -3.107683        1.000000        0.00003517        0.00003147        0.00000924
      19         -3.107641        1.000000        0.00002315        0.00014032        0.00001449
      20         -3.107604        1.000000        0.00003788        0.00009026        0.00001849
      21         -3.107402        1.000000        0.00001008        0.00001058        0.00000249
      22         -3.107115        1.000000        0.00000643        0.00001881        0.00000235
      23         -3.107013        1.000000        0.00000003        0.00000177        0.00000028
      24         -3.106750        1.000000        0.00000414        0.00001278        0.00000161
      25         -3.106619        1.000000        0.00000409        0.00000844        0.00000121
      26         -3.106567        1.000000        0.00032714        0.00098111        0.00012896
      27         -3.106546        1.000000        0.00147955        0.00517854        0.00066524
      28         -3.106258        1.000000        0.00000073        0.00000260        0.00000034
      29         -3.106103        1.000000        0.00000003        0.00000004        0.00000000
      30         -3.104674        1.000000        0.00000068        0.00000009        0.00000001
      31         -1.775522        1.000000        0.00059651        0.00164038        0.00012963
      32         -1.773964        1.000000        0.00111861        0.00306156        0.00028992
      33         -1.773454        1.000000        0.00009958        0.00037733        0.00005786
      34         -1.773008        1.000000        0.00003942        0.00035220        0.00013583
      35         -1.772581        1.000000        0.00004400        0.00010945        0.00001085
      36         -1.772213        1.000000        0.00000402        0.00008965        0.00004503
      37         -1.771852        1.000000        0.00004889        0.00013101        0.00001551
      38         -1.771444        1.000000        0.00009491        0.00028978        0.00004737
      39         -1.771233        1.000000        0.00000125        0.00002372        0.00001058
      40         -1.770977        1.000000        0.00000014        0.00000748        0.00000422
      41         -1.770760        1.000000        0.00005905        0.00015833        0.00001866
      42         -1.770111        1.000000        0.00006456        0.00020320        0.00002649
      43         -1.770034        1.000000        0.00001722        0.00013098        0.00004667
      44         -1.769495        1.000000        0.00002728        0.00007572        0.00000588
      45         -1.769421        1.000000        0.00007808        0.00026785        0.00007032
      46         -1.769063        1.000000        0.00000071        0.00011631        0.00004331
      47         -1.768532        1.000000        0.00000177        0.00001667        0.00000533
      48         -1.768412        1.000000        0.00000012        0.00001937        0.00001056
      49         -1.767811        1.000000        0.00001002        0.00005178        0.00001775
      50         -1.767614        1.000000        0.00006011        0.00016607        0.00003069
      51         -1.767477        1.000000        0.00002836        0.00008313        0.00001350
      52         -1.765531        1.000000        0.00003194        0.00009104        0.00002630
      53         -1.765088        1.000000        0.00094353        0.00195015        0.00012136
      54         -1.764557        1.000000        0.00009616        0.00019348        0.00002208
      55         -1.763772        1.000000        0.00034169        0.00097309        0.00006984
      56         -1.763328        1.000000        0.00016935        0.00033195        0.00003846
      57         -1.762925        1.000000        0.00018464        0.00059812        0.00013077
      58         -1.762506        1.000000        0.00000410        0.00041677        0.00021338
      59         -1.762119        1.000000        0.00000044        0.00026671        0.00009812
      60         -1.762053        1.000000        0.00049924        0.00113588        0.00008518
      61         -1.761895        1.000000        0.00003719        0.00014798        0.00005682
      62         -1.761602        1.000000        0.00000012        0.00010044        0.00004312
      63         -1.761509        1.000000        0.00003555        0.00058674        0.00026907
      64         -1.761377        1.000000        0.00006337        0.00067311        0.00025363
      65         -1.761171        1.000000        0.00001792        0.00006604        0.00001275
      66         -1.760998        1.000000        0.00001362        0.00010874        0.00004554
      67         -1.760877        1.000000        0.00000832        0.00012104        0.00003710
      68         -1.760806        1.000000        0.00002083        0.00052134        0.00023065
      69         -1.760684        1.000000        0.00003950        0.00016507        0.00004103
      70         -1.760645        1.000000        0.00001781        0.00013834        0.00006378
      71         -1.760442        1.000000        0.00004712        0.00074615        0.00025380
      72         -1.760098        1.000000        0.00002492        0.00011214        0.00002453
      73         -1.759962        1.000000        0.00000124        0.00017001        0.00007782
      74         -1.759824        1.000000        0.00000740        0.00006093        0.00002171
      75         -1.759787        1.000000        0.00001495        0.00032570        0.00011909
      76         -1.759638        1.000000        0.00007952        0.00073130        0.00028211
      77         -1.759601        1.000000        0.00000057        0.00007841        0.00005725
      78         -1.759512        1.000000        0.00000010        0.00012281        0.00005730
      79         -1.759406        1.000000        0.00001535        0.00013419        0.00006413
      80         -1.759287        1.000000        0.00008062        0.00133784        0.00058511
      81         -1.759176        1.000000        0.00000156        0.00002217        0.00001449
      82         -1.758872        1.000000        0.00000198        0.00039959        0.00019786
      83         -1.758781        1.000000        0.00007499        0.00041259        0.00014819
      84         -1.758726        1.000000        0.00002740        0.00016508        0.00006760
      85         -1.758559        1.000000        0.00002723        0.00010980        0.00004012
      86         -1.758378        1.000000        0.00000602        0.00013891        0.00005579
      87         -1.758294        1.000000        0.00000251        0.00012602        0.00005033
      88         -1.758087        1.000000        0.00002510        0.00021113        0.00008250
      89         -1.757987        1.000000        0.00001711        0.00012787        0.00004910
      90         -1.757734        1.000000        0.00003654        0.00022989        0.00009830
      91         -1.757649        1.000000        0.00000321        0.00017758        0.00010589
      92         -1.757529        1.000000        0.00000564        0.00002887        0.00000610
      93         -1.757404        1.000000        0.00000006        0.00001070        0.00000436
      94         -1.757324        1.000000        0.00000183        0.00042490        0.00020262
      95         -1.757187        1.000000        0.00000637        0.00001547        0.00000278
      96         -1.757137        1.000000        0.00000874        0.00002583        0.00001100
      97         -1.756770        1.000000        0.00000599        0.00004658        0.00001510
      98         -1.756598        1.000000        0.00000127        0.00001007        0.00000580
      99         -1.756513        1.000000        0.00000028        0.00002638        0.00000898
     100         -1.756186        1.000000        0.00000442        0.00002273        0.00000371
     101         -1.755847        1.000000        0.00002046        0.00013994        0.00004378
     102         -1.755716        1.000000        0.00000409        0.00000867        0.00000740
     103         -1.755306        1.000000        0.00001749        0.00022143        0.00011676
     104         -1.755052        1.000000        0.00001401        0.00032820        0.00020345
     105         -1.754765        1.000000        0.00000016        0.00008755        0.00005521
     106         -1.754094        1.000000        0.00000068        0.00000960        0.00000507
     107         -1.753681        1.000000        0.00000900        0.00008386        0.00007650
     108         -1.753548        1.000000        0.00000028        0.00001547        0.00000867
     109         -1.753256        1.000000        0.00000305        0.00005831        0.00005383
     110         -1.752675        1.000000        0.00000265        0.00004072        0.00005370
     111         -1.752502        1.000000        0.00000543        0.00001342        0.00001017
     112         -1.752253        1.000000        0.00000039        0.00003966        0.00003315
     113         -1.751643        1.000000        0.00000159        0.00000699        0.00000618
     114         -1.751317        1.000000        0.00000009        0.00000993        0.00000347
     115         -1.749193        1.000000        0.00000659        0.00040186        0.00022713
     116         -1.748137        1.000000        0.00000008        0.00002739        0.00000719
     117         -1.747283        1.000000        0.00000240        0.00013681        0.00011855
     118         -1.745962        1.000000        0.00000033        0.00005654        0.00003926
     119         -1.745880        1.000000        0.00000164        0.00010002        0.00011994
     120         -1.744143        1.000000        0.00000003        0.00000109        0.00000217
     121         -1.145318        1.000000        0.00000000        0.00000001        0.00000000
     122         -1.141162        1.000000        0.00000000        0.00000000        0.00000000
     123         -1.135518        1.000000        0.00000001        0.00000004        0.00000000
     124         -1.134356        1.000000        0.00000000        0.00000002        0.00000000
     125         -1.132797        1.000000        0.00000000        0.00000000        0.00000000
     126         -1.131675        1.000000        0.00000000        0.00000000        0.00000000
     127         -1.130657        1.000000        0.00000000        0.00000001        0.00000000
     128         -1.129329        1.000000        0.00000001        0.00000002        0.00000000
     129         -1.127805        1.000000        0.00000001        0.00000002        0.00000000
     130         -1.126970        1.000000        0.00000000        0.00000001        0.00000000
     131         -1.125100        1.000000        0.00000000        0.00000000        0.00000000
     132         -1.124640        1.000000        0.00000001        0.00000002        0.00000000
     133         -1.122028        1.000000        0.00000000        0.00000000        0.00000000
     134         -1.120887        1.000000        0.00000000        0.00000000        0.00000000
     135         -1.119308        1.000000        0.00000000        0.00000000        0.00000000
     136         -1.118408        1.000000        0.00000000        0.00000000        0.00000000
     137         -1.117769        1.000000        0.00000000        0.00000000        0.00000000
     138         -1.116570        1.000000        0.00000000        0.00000000        0.00000000
     139         -1.115096        1.000000        0.00000000        0.00000000        0.00000000
     140         -1.114402        1.000000        0.00000000        0.00000000        0.00000000
     141         -1.114039        1.000000        0.00000000        0.00000001        0.00000000
     142         -1.112381        1.000000        0.00000000        0.00000000        0.00000000
     143         -1.111588        1.000000        0.00000000        0.00000000        0.00000000
     144         -1.111356        1.000000        0.00000000        0.00000000        0.00000000
     145         -1.110913        1.000000        0.00000000        0.00000000        0.00000000
     146         -1.109631        1.000000        0.00000000        0.00000001        0.00000000
     147         -1.107338        1.000000        0.00000000        0.00000000        0.00000000
     148         -1.107163        1.000000        0.00000000        0.00000000        0.00000000
     149         -1.106911        1.000000        0.00000000        0.00000000        0.00000000
     150         -1.105904        1.000000        0.00000001        0.00000001        0.00000000
     151         -1.104513        1.000000        0.00000000        0.00000000        0.00000000
     152         -1.103753        1.000000        0.00000000        0.00000000        0.00000000
     153         -1.103233        1.000000        0.00000000        0.00000001        0.00000000
     154         -1.101116        1.000000        0.00000001        0.00000003        0.00000000
     155         -1.099878        1.000000        0.00000001        0.00000002        0.00000000
     156         -1.099527        1.000000        0.00000001        0.00000001        0.00000000
     157         -1.099360        1.000000        0.00000001        0.00000006        0.00000000
     158         -1.097449        1.000000        0.00000004        0.00000005        0.00000000
     159         -1.097246        1.000000        0.00000000        0.00000001        0.00000000
     160         -1.096336        1.000000        0.00000033        0.00000029        0.00000002
     161         -1.095776        1.000000        0.00000056        0.00000051        0.00000003
     162         -1.094258        1.000000        0.00000010        0.00000009        0.00000000
     163         -1.093701        1.000000        0.00000005        0.00000004        0.00000000
     164         -1.093107        1.000000        0.00000004        0.00000005        0.00000000
     165         -1.091600        1.000000        0.00000002        0.00000001        0.00000000
     166         -1.090890        1.000000        0.00000002        0.00000001        0.00000000
     167         -1.090283        1.000000        0.00000001        0.00000001        0.00000000
     168         -1.089378        1.000000        0.00000000        0.00000000        0.00000000
     169         -1.088506        1.000000        0.00000000        0.00000000        0.00000000
     170         -1.086931        1.000000        0.00000000        0.00000000        0.00000000
     171         -1.086367        1.000000        0.00000000        0.00000000        0.00000000
     172         -1.085327        1.000000        0.00000002        0.00000002        0.00000000
     173         -1.084766        1.000000        0.00000000        0.00000000        0.00000000
     174         -1.083961        1.000000        0.00000000        0.00000000        0.00000000
     175         -1.082920        1.000000        0.00000000        0.00000000        0.00000000
     176         -1.081700        1.000000        0.00000000        0.00000001        0.00000000
     177         -1.081031        1.000000        0.00000000        0.00000000        0.00000000
     178         -1.080558        1.000000        0.00000000        0.00000000        0.00000000
     179         -1.080415        1.000000        0.00000000        0.00000000        0.00000000
     180         -1.080047        1.000000        0.00000000        0.00000000        0.00000000
     181         -1.077309        1.000000        0.00000000        0.00000001        0.00000000
     182         -1.076601        1.000000        0.00000000        0.00000000        0.00000000
     183         -1.076342        1.000000        0.00000000        0.00000000        0.00000000
     184         -1.076154        1.000000        0.00000000        0.00000001        0.00000000
     185         -1.075469        1.000000        0.00000000        0.00000000        0.00000000
     186         -1.074904        1.000000        0.00000000        0.00000000        0.00000000
     187         -1.074160        1.000000        0.00000000        0.00000000        0.00000000
     188         -1.073364        1.000000        0.00000000        0.00000000        0.00000000
     189         -1.071841        1.000000        0.00000000        0.00000001        0.00000000
     190         -1.071436        1.000000        0.00000000        0.00000000        0.00000000
     191         -1.070358        1.000000        0.00000000        0.00000000        0.00000000
     192         -1.070160        1.000000        0.00000000        0.00000001        0.00000000
     193         -1.069551        1.000000        0.00000000        0.00000000        0.00000000
     194         -1.069042        1.000000        0.00000000        0.00000000        0.00000000
     195         -1.068018        1.000000        0.00000000        0.00000001        0.00000000
     196         -1.067683        1.000000        0.00000000        0.00000000        0.00000000
     197         -1.067094        1.000000        0.00000000        0.00000000        0.00000000
     198         -1.066200        1.000000        0.00000000        0.00000000        0.00000000
     199         -1.065105        1.000000        0.00000000        0.00000002        0.00000000
     200         -1.064600        1.000000        0.00000000        0.00000003        0.00000001
     201         -1.063825        1.000000        0.00000000        0.00000001        0.00000000
     202         -1.063672        1.000000        0.00000000        0.00000001        0.00000000
     203         -1.062915        1.000000        0.00000000        0.00000001        0.00000000
     204         -1.062259        1.000000        0.00000000        0.00000000        0.00000000
     205         -1.061986        1.000000        0.00000000        0.00000000        0.00000000
     206         -1.060822        1.000000        0.00000000        0.00000000        0.00000000
     207         -1.060230        1.000000        0.00000001        0.00000001        0.00000000
     208         -1.059971        1.000000        0.00000000        0.00000000        0.00000000
     209         -1.059399        1.000000        0.00000000        0.00000000        0.00000000
     210         -1.058798        1.000000        0.00000000        0.00000000        0.00000000
     211         -1.058498        1.000000        0.00000000        0.00000000        0.00000000
     212         -1.057049        1.000000        0.00000000        0.00000001        0.00000000
     213         -1.056896        1.000000        0.00000000        0.00000002        0.00000000
     214         -1.056403        1.000000        0.00000000        0.00000000        0.00000000
     215         -1.056079        1.000000        0.00000000        0.00000000        0.00000000
     216         -1.055624        1.000000        0.00000000        0.00000000        0.00000000
     217         -1.055288        1.000000        0.00000000        0.00000000        0.00000000
     218         -1.054828        1.000000        0.00000000        0.00000000        0.00000000
     219         -1.054413        1.000000        0.00000000        0.00000000        0.00000000
     220         -1.053990        1.000000        0.00000000        0.00000000        0.00000000
     221         -1.053598        1.000000        0.00000000        0.00000000        0.00000000
     222         -1.053387        1.000000        0.00000000        0.00000001        0.00000000
     223         -1.052953        1.000000        0.00000000        0.00000000        0.00000000
     224         -1.052779        1.000000        0.00000000        0.00000000        0.00000000
     225         -1.052376        1.000000        0.00000000        0.00000000        0.00000000
     226         -1.052297        1.000000        0.00000000        0.00000000        0.00000000
     227         -1.051819        1.000000        0.00000000        0.00000000        0.00000000
     228         -1.051536        1.000000        0.00000000        0.00000000        0.00000000
     229         -1.051232        1.000000        0.00000000        0.00000000        0.00000000
     230         -1.050581        1.000000        0.00000000        0.00000000        0.00000000
     231         -1.050140        1.000000        0.00000000        0.00000000        0.00000000
     232         -1.049834        1.000000        0.00000000        0.00000000        0.00000000
     233         -1.049588        1.000000        0.00000000        0.00000000        0.00000000
     234         -1.049506        1.000000        0.00000000        0.00000000        0.00000000
     235         -1.048565        1.000000        0.00000000        0.00000000        0.00000000
     236         -1.048103        1.000000        0.00000000        0.00000000        0.00000000
     237         -1.048023        1.000000        0.00000000        0.00000000        0.00000000
     238         -1.047651        1.000000        0.00000000        0.00000000        0.00000000
     239         -1.047305        1.000000        0.00000000        0.00000000        0.00000000
     240         -1.046707        1.000000        0.00000000        0.00000000        0.00000000
     241         -1.046592        1.000000        0.00000000        0.00000000        0.00000000
     242         -1.046281        1.000000        0.00000000        0.00000000        0.00000000
     243         -1.045974        1.000000        0.00000000        0.00000000        0.00000000
     244         -1.045866        1.000000        0.00000000        0.00000000        0.00000000
     245         -1.045771        1.000000        0.00000000        0.00000000        0.00000000
     246         -1.045301        1.000000        0.00000000        0.00000000        0.00000000
     247         -1.045020        1.000000        0.00000000        0.00000000        0.00000000
     248         -1.043956        1.000000        0.00000000        0.00000000        0.00000000
     249         -1.043818        1.000000        0.00000000        0.00000000        0.00000000
     250         -1.043244        1.000000        0.00000000        0.00000000        0.00000000
     251         -1.043119        1.000000        0.00000000        0.00000000        0.00000000
     252         -1.042993        1.000000        0.00000000        0.00000000        0.00000000
     253         -1.042515        1.000000        0.00000001        0.00000000        0.00000000
     254         -1.041302        1.000000        0.00000000        0.00000000        0.00000000
     255         -1.041116        1.000000        0.00000000        0.00000000        0.00000000
     256         -1.040594        1.000000        0.00000000        0.00000000        0.00000000
     257         -1.040094        1.000000        0.00000000        0.00000000        0.00000000
     258         -1.039599        1.000000        0.00000000        0.00000000        0.00000000
     259         -1.039408        1.000000        0.00000000        0.00000000        0.00000000
     260         -1.038970        1.000000        0.00000000        0.00000000        0.00000000
     261         -1.038561        1.000000        0.00000000        0.00000000        0.00000000
     262         -1.038022        1.000000        0.00000000        0.00000000        0.00000000
     263         -1.037841        1.000000        0.00000000        0.00000000        0.00000000
     264         -1.036991        1.000000        0.00000000        0.00000000        0.00000000
     265         -1.036854        1.000000        0.00000000        0.00000000        0.00000000
     266         -1.035910        1.000000        0.00000000        0.00000000        0.00000000
     267         -1.035115        1.000000        0.00000000        0.00000000        0.00000000
     268         -1.034275        1.000000        0.00000000        0.00000000        0.00000000
     269         -1.033697        1.000000        0.00000000        0.00000000        0.00000000
     270         -1.033444        1.000000        0.00000000        0.00000000        0.00000000
     271         -1.033385        1.000000        0.00000000        0.00000000        0.00000000
     272         -1.033262        1.000000        0.00000000        0.00000000        0.00000000
     273         -1.032346        1.000000        0.00000000        0.00000000        0.00000000
     274         -1.031626        1.000000        0.00000000        0.00000000        0.00000000
     275         -1.030746        1.000000        0.00000000        0.00000000        0.00000000
     276         -1.029780        1.000000        0.00000000        0.00000000        0.00000000
     277         -1.028980        1.000000        0.00000000        0.00000000        0.00000000
     278         -1.027492        1.000000        0.00000000        0.00000000        0.00000000
     279         -1.025795        1.000000        0.00000000        0.00000000        0.00000000
     280         -1.023990        1.000000        0.00000000        0.00000000        0.00000000
     281         -1.022755        1.000000        0.00000000        0.00000000        0.00000000
     282         -1.019871        1.000000        0.00000000        0.00000000        0.00000000
     283         -1.017737        1.000000        0.00000000        0.00000005        0.00000001
     284         -1.012409        1.000000        0.00000000        0.00000000        0.00000000
     285         -1.010522        1.000000        0.00000000        0.00000000        0.00000000
     286         -0.880961        1.000000        0.00702888        0.00031816        0.00000314
     287         -0.861761        1.000000        0.02182532        0.00100327        0.00002047
     288         -0.860652        1.000000        0.00138351        0.00079201        0.00001702
     289         -0.854811        1.000000        0.00055513        0.00043425        0.00001980
     290         -0.853189        1.000000        0.00589123        0.00069343        0.00001060
     291         -0.838407        1.000000        0.00210887        0.00059547        0.00002191
     292         -0.837131        1.000000        0.01097456        0.00085816        0.00001981
     293         -0.835422        1.000000        0.00407089        0.00163323        0.00003291
     294         -0.832873        1.000000        0.00052789        0.00130186        0.00006849
     295         -0.813092        1.000000        0.00112158        0.00099450        0.00003634
     296         -0.811309        1.000000        0.00867738        0.00037700        0.00009857
     297         -0.805633        1.000000        0.04251277        0.00035438        0.00021317
     298         -0.800994        1.000000        0.02004831        0.00030740        0.00008475
     299         -0.798544        1.000000        0.00970181        0.00043388        0.00001493
     300         -0.797176        1.000000        0.00091134        0.00038694        0.00002745
     301         -0.796065        1.000000        0.00421369        0.00064727        0.00007138
     302         -0.795247        1.000000        0.03264608        0.00044657        0.00001799
     303         -0.794465        1.000000        0.00016280        0.00046984        0.00007214
     304         -0.792558        1.000000        0.00005620        0.00063088        0.00005367
     305         -0.791532        1.000000        0.00490701        0.00009261        0.00000727
     306         -0.790931        1.000000        0.00004685        0.00033376        0.00000199
     307         -0.790366        1.000000        0.00002762        0.00124187        0.00003366