# Projected DOS for list 126 of 1 atoms, at iteration step i = 0, E(Fermi) =    -0.237583 a.u.
#     MO Eigenvalue [a.u.]      Occupation                 s                 p                 d
       1         -3.115895        1.000000        0.00000000        0.00000000        0.00000000
       2         -3.112717        1.000000        0.00000000        0.00000000        0.00000000
       3         -3.112103        1.000000        0.00000000        0.00000000        0.00000000
       4         -3.111180        1.000000        0.00000000        0.00000000        0.00000000
       5         -3.110810        1.000000        0.00000000        0.00000000        0.00000000
       6         -3.110575        1.000000        0.00000000        0.00000000        0.00000000
       7         -3.110067        1.000000        0.00000000        0.00000000        0.00000000
       8         -3.109817        1.000000        0.00000000        0.00000000        0.00000000
       9         -3.109660        1.000000        0.00000000        0.00000000        0.00000000
      10         -3.108831        1.000000        0.00000000        0.00000000        0.00000000
      11         -3.108678        1.000000        0.00000000        0.00000000        0.00000000
      12         -3.108578        1.000000        0.00000000        0.00000000        0.00000000
      13         -3.108350        1.000000        0.00000000        0.00000000        0.00000000
      14         -3.108163        1.000000        0.00000000        0.00000000        0.00000000
      15         -3.107948        1.000000        0.00000000        0.00000000        0.00000000
      16         -3.107865        1.000000        0.00000000        0.00000000        0.00000000
      17         -3.107703        1.000000        0.00000000        0.00000000        0.00000000
      18         -3.107683        1.000000        0.00000000        0.00000000        0.00000000
      19         -3.107641        1.000000        0.00000000        0.00000000        0.00000000
      20         -3.107604        1.000000        0.00000000        0.00000000        0.00000000
      21         -3.107402        1.000000        0.00000000        0.00000000        0.00000000
      22         -3.107115        1.000000        0.00000000        0.00000000        0.00000000
      23         -3.107013        1.000000        0.00000000        0.00000000        0.00000000
      24         -3.106750        1.000000        0.00000000        0.00000000        0.00000000
      25         -3.106619        1.000000        0.00000000        0.00000000        0.00000000
      26         -3.106567        1.000000        0.00000000        0.00000000        0.00000000
      27         -3.106546        1.000000        0.00000000        0.00000000        0.00000000
      28         -3.106258        1.000000        0.00000000        0.00000000        0.00000000
      29         -3.106103        1.000000        0.00000000        0.00000000        0.00000000
      30         -3.104674        1.000000        0.00000000        0.00000000        0.00000000
      31         -1.775522        1.000000        0.00000000        0.00000000        0.00000000
      32         -1.773964        1.000000        0.00000000        0.00000000        0.00000000
      33         -1.773454        1.000000        0.00000000        0.00000000        0.00000000
      34         -1.773008        1.000000        0.00000000        0.00000000        0.00000000
      35         -1.772581        1.000000        0.00000000        0.00000000        0.00000000
      36         -1.772213        1.000000        0.00000000        0.00000000        0.00000000
      37         -1.771852        1.000000        0.00000000        0.00000000        0.00000000
      38         -1.771444        1.000000        0.00000000        0.00000000        0.00000000
      39         -1.771233        1.000000        0.00000000        0.00000000        0.00000000
      40         -1.770977        1.000000        0.00000000        0.00000000        0.00000000
      41         -1.770760        1.000000        0.00000000        0.00000000        0.00000000
      42         -1.770111        1.000000        0.00000000        0.00000000        0.00000000
      43         -1.770034        1.000000        0.00000000        0.00000000        0.00000000
      44         -1.769495        1.000000        0.00000000        0.00000000        0.00000000
      45         -1.769421        1.000000        0.00000000        0.00000000        0.00000000
      46         -1.769063        1.000000        0.00000000        0.00000000        0.00000000
      47         -1.768532        1.000000        0.00000000        0.00000000        0.00000000
      48         -1.768412        1.000000        0.00000000        0.00000000        0.00000000
      49         -1.767811        1.000000        0.00000000        0.00000000        0.00000000
      50         -1.767614        1.000000        0.00000000        0.00000000        0.00000000
      51         -1.767477        1.000000        0.00000000        0.00000000        0.00000000
      52         -1.765531        1.000000        0.00000000        0.00000000        0.00000000
      53         -1.765088        1.000000        0.00000000        0.00000000        0.00000000
      54         -1.764557        1.000000        0.00000000        0.00000000        0.00000000
      55         -1.763772        1.000000        0.00000000        0.00000000        0.00000000
      56         -1.763328        1.000000        0.00000000        0.00000000        0.00000000
      57         -1.762925        1.000000        0.00000000        0.00000000        0.00000000
      58         -1.762506        1.000000        0.00000000        0.00000000        0.00000000
      59         -1.762119        1.000000        0.00000000        0.00000000        0.00000000
      60         -1.762053        1.000000        0.00000000        0.00000000        0.00000000
      61         -1.761895        1.000000        0.00000000        0.00000000        0.00000000
      62         -1.761602        1.000000        0.00000000        0.00000000        0.00000000
      63         -1.761509        1.000000        0.00000000        0.00000000        0.00000000
      64         -1.761377        1.000000        0.00000000        0.00000000        0.00000000
      65         -1.761171        1.000000        0.00000000        0.00000000        0.00000000
      66         -1.760998        1.000000        0.00000000        0.00000000        0.00000000
      67         -1.760877        1.000000        0.00000000        0.00000000        0.00000000
      68         -1.760806        1.000000        0.00000000        0.00000000        0.00000000
      69         -1.760684        1.000000        0.00000000        0.00000000        0.00000000
      70         -1.760645        1.000000        0.00000000        0.00000000        0.00000000
      71         -1.760442        1.000000        0.00000000        0.00000000        0.00000000
      72         -1.760098        1.000000        0.00000000        0.00000000        0.00000000
      73         -1.759962        1.000000        0.00000000        0.00000000        0.00000000
      74         -1.759824        1.000000        0.00000000        0.00000000        0.00000000
      75         -1.759787        1.000000        0.00000000        0.00000000        0.00000000
      76         -1.759638        1.000000        0.00000000        0.00000000        0.00000000
      77         -1.759601        1.000000        0.00000000        0.00000000        0.00000000
      78         -1.759512        1.000000        0.00000000        0.00000000        0.00000000
      79         -1.759406        1.000000        0.00000000        0.00000000        0.00000000
      80         -1.759287        1.000000        0.00000000        0.00000000        0.00000000
      81         -1.759176        1.000000        0.00000000        0.00000000        0.00000000
      82         -1.758872        1.000000        0.00000000        0.00000000        0.00000000
      83         -1.758781        1.000000        0.00000000        0.00000000        0.00000000
      84         -1.758726        1.000000        0.00000000        0.00000000        0.00000000
      85         -1.758559        1.000000        0.00000000        0.00000000        0.00000000
      86         -1.758378        1.000000        0.00000000        0.00000000        0.00000000
      87         -1.758294        1.000000        0.00000000        0.00000000        0.00000000
      88         -1.758087        1.000000        0.00000000        0.00000000        0.00000000
      89         -1.757987        1.000000        0.00000000        0.00000000        0.00000000
      90         -1.757734        1.000000        0.00000000        0.00000000        0.00000000
      91         -1.757649        1.000000        0.00000000        0.00000000        0.00000000
      92         -1.757529        1.000000        0.00000000        0.00000000        0.00000000
      93         -1.757404        1.000000        0.00000000        0.00000000        0.00000000
      94         -1.757324        1.000000        0.00000000        0.00000000        0.00000000
      95         -1.757187        1.000000        0.00000000        0.00000000        0.00000000
      96         -1.757137        1.000000        0.00000000        0.00000000        0.00000000
      97         -1.756770        1.000000        0.00000000        0.00000000        0.00000000
      98         -1.756598        1.000000        0.00000000        0.00000000        0.00000000
      99         -1.756513        1.000000        0.00000000        0.00000000        0.00000000
     100         -1.756186        1.000000        0.00000000        0.00000000        0.00000000
     101         -1.755847        1.000000        0.00000000        0.00000000        0.00000000
     102         -1.755716        1.000000        0.00000000        0.00000000        0.00000000
     103         -1.755306        1.000000        0.00000000        0.00000000        0.00000000
     104         -1.755052        1.000000        0.00000000        0.00000000        0.00000000
     105         -1.754765        1.000000        0.00000000        0.00000000        0.00000000
     106         -1.754094        1.000000        0.00000000        0.00000000        0.00000000
     107         -1.753681        1.000000        0.00000000        0.00000000        0.00000000
     108         -1.753548        1.000000        0.00000000        0.00000000        0.00000000
     109         -1.753256        1.000000        0.00000000        0.00000000        0.00000000
     110         -1.752675        1.000000        0.00000000        0.00000000        0.00000000
     111         -1.752502        1.000000        0.00000000        0.00000000        0.00000000
     112         -1.752253        1.000000        0.00000000        0.00000000        0.00000000
     113         -1.751643        1.000000        0.00000000        0.00000000        0.00000000
     114         -1.751317        1.000000        0.00000000        0.00000000        0.00000000
     115         -1.749193        1.000000        0.00000000        0.00000000        0.00000000
     116         -1.748137        1.000000        0.00000000        0.00000000        0.00000000
     117         -1.747283        1.000000        0.00000000        0.00000000        0.00000000
     118         -1.745962        1.000000        0.00000000        0.00000000        0.00000000
     119         -1.745880        1.000000        0.00000000        0.00000000        0.00000000
     120         -1.744143        1.000000        0.00000000        0.00000000        0.00000000
     121         -1.145318        1.000000        0.00155077        0.00128744        0.00014688
     122         -1.141162        1.000000        0.00034640        0.00086783        0.00015325
     123         -1.135518        1.000000        0.00011541        0.00024577        0.00004684
     124         -1.134356        1.000000        0.00009927        0.00030559        0.00006459
     125         -1.132797        1.000000        0.00013857        0.00047886        0.00011229
     126         -1.131675        1.000000        0.00155907        0.00024905        0.00008841
     127         -1.130657        1.000000        0.00689280        0.00319449        0.00046820
     128         -1.129329        1.000000        0.00035979        0.00090105        0.00018873
     129         -1.127805        1.000000        0.00053368        0.00019937        0.00002859
     130         -1.126970        1.000000        0.00000275        0.00024405        0.00006852
     131         -1.125100        1.000000        0.00001315        0.00014676        0.00003255
     132         -1.124640        1.000000        0.00022384        0.00009027        0.00000540
     133         -1.122028        1.000000        0.00038466        0.00059783        0.00016586
     134         -1.120887        1.000000        0.00073275        0.00020102        0.00010258
     135         -1.119308        1.000000        0.00043407        0.00007759        0.00000493
     136         -1.118408        1.000000        0.00001092        0.00014888        0.00003663
     137         -1.117769        1.000000        0.00482549        0.00017605        0.00011872
     138         -1.116570        1.000000        0.00006580        0.00004157        0.00000613
     139         -1.115096        1.000000        0.01856986        0.00254387        0.00169943
     140         -1.114402        1.000000        0.02256819        0.00241166        0.00179035
     141         -1.114039        1.000000        0.00047212        0.00064055        0.00010965
     142         -1.112381        1.000000        0.00345869        0.00011155        0.00014844
     143         -1.111588        1.000000        0.01740697        0.00173046        0.00127712
     144         -1.111356        1.000000        0.00020981        0.00019134        0.00003018
     145         -1.110913        1.000000        0.00438059        0.00065413        0.00019471
     146         -1.109631        1.000000        0.00002876        0.00006750        0.00002896
     147         -1.107338        1.000000        0.00384219        0.00222303        0.00056201
     148         -1.107163        1.000000        0.00111371        0.00454228        0.00121039
     149         -1.106911        1.000000        0.00176958        0.00061215        0.00016924
     150         -1.105904        1.000000        0.00593754        0.00438034        0.00129698
     151         -1.104513        1.000000        0.00000500        0.00109273        0.00041942
     152         -1.103753        1.000000        0.00001842        0.00065667        0.00026192
     153         -1.103233        1.000000        0.00002172        0.00227585        0.00070032
     154         -1.101116        1.000000        0.00262085        0.00268867        0.00095923
     155         -1.099878        1.000000        0.00083483        0.00131607        0.00049814
     156         -1.099527        1.000000        0.00091694        0.00026221        0.00014630
     157         -1.099360        1.000000        0.00023388        0.00095989        0.00033324
     158         -1.097449        1.000000        0.00512119        0.00106308        0.00039720
     159         -1.097246        1.000000        0.00111828        0.00098717        0.00035959
     160         -1.096336        1.000000        0.00024180        0.00482207        0.00146352
     161         -1.095776        1.000000        0.00293253        0.00165844        0.00032648
     162         -1.094258        1.000000        0.00006649        0.00232261        0.00070781
     163         -1.093701        1.000000        0.00125705        0.00136541        0.00038663
     164         -1.093107        1.000000        0.00000182        0.00145477        0.00050752
     165         -1.091600        1.000000        0.00012633        0.00087862        0.00035985
     166         -1.090890        1.000000        0.00005286        0.00149385        0.00051999
     167         -1.090283        1.000000        0.00983531        0.00304070        0.00127778
     168         -1.089378        1.000000        0.00024079        0.00197859        0.00060807
     169         -1.088506        1.000000        0.00006315        0.00046682        0.00017515
     170         -1.086931        1.000000        0.00045219        0.00016751        0.00003410
     171         -1.086367        1.000000        0.00260466        0.00377411        0.00108322
     172         -1.085327        1.000000        0.00013407        0.00215996        0.00079562
     173         -1.084766        1.000000        0.00118877        0.00270016        0.00079424
     174         -1.083961        1.000000        0.00490048        0.00400273        0.00113459
     175         -1.082920        1.000000        0.00033567        0.00057096        0.00018034
     176         -1.081700        1.000000        0.00044435        0.00467649        0.00143035
     177         -1.081031        1.000000        0.00000433        0.00058122        0.00021341
     178         -1.080558        1.000000        0.00003008        0.00176083        0.00056533
     179         -1.080415        1.000000        0.00018216        0.00058561        0.00018936
     180         -1.080047        1.000000        0.00006981        0.00081391        0.00029051
     181         -1.077309        1.000000        0.00001496        0.00064566        0.00017783
     182         -1.076601        1.000000        0.00111321        0.00407928        0.00132992
     183         -1.076342        1.000000        0.00090602        0.00212166        0.00079130
     184         -1.076154        1.000000        0.00003990        0.00127191        0.00043183
     185         -1.075469        1.000000        0.00000065        0.00035652        0.00014050
     186         -1.074904        1.000000        0.00001240        0.00530745        0.00197217
     187         -1.074160        1.000000        0.00000550        0.00010273        0.00005796
     188         -1.073364        1.000000        0.00000974        0.00241158        0.00084103
     189         -1.071841        1.000000        0.00040252        0.00243174        0.00075673
     190         -1.071436        1.000000        0.00026842        0.00143317        0.00050752
     191         -1.070358        1.000000        0.00002264        0.00306051        0.00107606
     192         -1.070160        1.000000        0.00007122        0.00243771        0.00086686
     193         -1.069551        1.000000        0.00008778        0.00165160        0.00057805
     194         -1.069042        1.000000        0.00048431        0.00710951        0.00258601
     195         -1.068018        1.000000        0.00000826        0.00075561        0.00034359
     196         -1.067683        1.000000        0.00015362        0.00793633        0.00279348
     197         -1.067094        1.000000        0.00030968        0.01943498        0.00715824
     198         -1.066200        1.000000        0.00033396        0.00910033        0.00340256
     199         -1.065105        1.000000        0.00000292        0.00241066        0.00107765
     200         -1.064600        1.000000        0.00003292        0.00249482        0.00093116
     201         -1.063825        1.000000        0.00004096        0.00075369        0.00036565
     202         -1.063672        1.000000        0.00007668        0.00286671        0.00116669
     203         -1.062915        1.000000        0.00001806        0.00261062        0.00098241
     204         -1.062259        1.000000        0.00000965        0.00123765        0.00059620
     205         -1.061986        1.000000        0.00000078        0.00021767        0.00007764
     206         -1.060822        1.000000        0.00001487        0.00089414        0.00039259
     207         -1.060230        1.000000        0.00000806        0.00064797        0.00028281
     208         -1.059971        1.000000        0.00000918        0.00103015        0.00044442
     209         -1.059399        1.000000        0.00001412        0.00271914        0.00117480
     210         -1.058798        1.000000        0.00003860        0.00323665        0.00146653
     211         -1.058498        1.000000        0.00000785        0.00198959        0.00088619
     212         -1.057049        1.000000        0.00000080        0.00021371        0.00011717
     213         -1.056896        1.000000        0.00000054        0.00045239        0.00020462
     214         -1.056403        1.000000        0.00000236        0.00080833        0.00036746
     215         -1.056079        1.000000        0.00000253        0.00252671        0.00107107
     216         -1.055624        1.000000        0.00000555        0.00498925        0.00193044
     217         -1.055288        1.000000        0.00000159        0.01244693        0.00435666
     218         -1.054828        1.000000        0.00004763        0.01194886        0.00544342
     219         -1.054413        1.000000        0.00000333        0.00077431        0.00035359
     220         -1.053990        1.000000        0.00006737        0.01038515        0.00466760
     221         -1.053598        1.000000        0.00024329        0.02812736        0.01265232
     222         -1.053387        1.000000        0.00005163        0.00415012        0.00178145
     223         -1.052953        1.000000        0.00006032        0.00839155        0.00358690
     224         -1.052779        1.000000        0.00002658        0.00989543        0.00423268
     225         -1.052376        1.000000        0.00007516        0.00642189        0.00299295
     226         -1.052297        1.000000        0.00000253        0.00384702        0.00139540
     227         -1.051819        1.000000        0.00015356        0.01419141        0.00648675
     228         -1.051536        1.000000        0.00000061        0.00119458        0.00046685
     229         -1.051232        1.000000        0.00000203        0.00703173        0.00291073
     230         -1.050581        1.000000        0.00005198        0.01982109        0.00892995
     231         -1.050140        1.000000        0.00004301        0.00283387        0.00124033
     232         -1.049834        1.000000        0.00001739        0.00200008        0.00108266
     233         -1.049588        1.000000        0.00003323        0.00349917        0.00160725
     234         -1.049506        1.000000        0.00013052        0.01520455        0.00595706
     235         -1.048565        1.000000        0.00001456        0.00574912        0.00286224
     236         -1.048103        1.000000        0.00004078        0.01789990        0.00877672
     237         -1.048023        1.000000        0.00001144        0.00482043        0.00231864
     238         -1.047651        1.000000        0.00001054        0.00245225        0.00124548
     239         -1.047305        1.000000        0.00007739        0.00687424        0.00283325
     240         -1.046707        1.000000        0.00002052        0.00832834        0.00399149
     241         -1.046592        1.000000        0.00002201        0.00239654        0.00105725
     242         -1.046281        1.000000        0.00000831        0.00530774        0.00269480
     243         -1.045974        1.000000        0.00000008        0.00037077        0.00014167
     244         -1.045866        1.000000        0.00002368        0.00431941        0.00193399
     245         -1.045771        1.000000        0.00004399        0.00085372        0.00039207
     246         -1.045301        1.000000        0.00001053        0.00029143        0.00012780
     247         -1.045020        1.000000        0.00000033        0.00064997        0.00028212
     248         -1.043956        1.000000        0.00001107        0.00072121        0.00037561
     249         -1.043818        1.000000        0.00000398        0.00077162        0.00039889
     250         -1.043244        1.000000        0.00000115        0.00018681        0.00006725
     251         -1.043119        1.000000        0.00006879        0.01516934        0.00611752
     252         -1.042993        1.000000        0.00050630        0.01160845        0.00671910
     253         -1.042515        1.000000        0.00003231        0.00093419        0.00043693
     254         -1.041302        1.000000        0.00000327        0.00038921        0.00014164
     255         -1.041116        1.000000        0.00001951        0.00154451        0.00090323
     256         -1.040594        1.000000        0.00001135        0.00023261        0.00016204
     257         -1.040094        1.000000        0.00002442        0.00026800        0.00017377
     258         -1.039599        1.000000        0.00001340        0.00075986        0.00033137
     259         -1.039408        1.000000        0.00001058        0.00067487        0.00025919
     260         -1.038970        1.000000        0.00001256        0.00025595        0.00009844
     261         -1.038561        1.000000        0.00003826        0.00066828        0.00029189
     262         -1.038022        1.000000        0.00001156        0.00074245        0.00033310
     263         -1.037841        1.000000        0.00000013        0.00001994        0.00000719
     264         -1.036991        1.000000        0.00001325        0.00055867        0.00028748
     265         -1.036854        1.000000        0.00002100        0.00029017        0.00012922
     266         -1.035910        1.000000        0.00011013        0.01580672        0.00828733
     267         -1.035115        1.000000        0.00000929        0.00028102        0.00015753
     268         -1.034275        1.000000        0.00003024        0.00251261        0.00130779
     269         -1.033697        1.000000        0.00002072        0.00086500        0.00037301
     270         -1.033444        1.000000        0.00000642        0.00039218        0.00017751
     271         -1.033385        1.000000        0.00001768        0.00041234        0.00018767
     272         -1.033262        1.000000        0.00006451        0.00296332        0.00176042
     273         -1.032346        1.000000        0.00000029        0.00000597        0.00000390
     274         -1.031626        1.000000        0.00001073        0.00008031        0.00005274
     275         -1.030746        1.000000        0.00002602        0.00085923        0.00038812
     276         -1.029780        1.000000        0.00000606        0.00018575        0.00009332
     277         -1.028980        1.000000        0.00001011        0.00019766        0.00010115
     278         -1.027492        1.000000        0.00000007        0.00000123        0.00000064
     279         -1.025795        1.000000        0.00000009        0.00000054        0.00000042
     280         -1.023990        1.000000        0.00000001        0.00000143        0.00000080
     281         -1.022755        1.000000        0.00000350        0.00036609        0.00020376
     282         -1.019871        1.000000        0.00000547        0.00003392        0.00001174
     283         -1.017737        1.000000        0.00000001        0.00000004        0.00000003
     284         -1.012409        1.000000        0.00000001        0.00000024        0.00000014
     285         -1.010522        1.000000        0.00000046        0.00012117        0.00007758
     286         -0.880961        1.000000        0.00000000        0.00000000        0.00000000
     287         -0.861761        1.000000        0.00000000        0.00000000        0.00000000
     288         -0.860652        1.000000        0.00000000        0.00000000        0.00000000
     289         -0.854811        1.000000        0.00000000        0.00000000        0.00000000
     290         -0.853189        1.000000        0.00000000        0.00000000        0.00000000
     291         -0.838407        1.000000        0.00000000        0.00000000        0.00000000
     292         -0.837131        1.000000        0.00000000        0.00000000        0.00000000
     293         -0.835422        1.000000        0.00000000        0.00000000        0.00000000
     294         -0.832873        1.000000        0.00000000        0.00000000        0.00000000
     295         -0.813092        1.000000        0.00000000        0.00000000        0.00000000
     296         -0.811309        1.000000        0.00000000        0.00000000        0.00000000
     297         -0.805633        1.000000        0.00000000        0.00000000        0.00000000
     298         -0.800994        1.000000        0.00000000        0.00000000        0.00000000
     299         -0.798544        1.000000        0.00000000        0.00000000        0.00000000
     300         -0.797176        1.000000        0.00000000        0.00000000        0.00000000
     301         -0.796065        1.000000        0.00000000        0.00000000        0.00000000
     302         -0.795247        1.000000        0.00000000        0.00000000        0.00000000
     303         -0.794465        1.000000        0.00000000        0.00000000        0.00000000
     304         -0.792558        1.000000        0.00000000        0.00000000        0.00000000
     305         -0.791532        1.000000        0.00000000        0.00000000        0.00000000
     306         -0.790931        1.000000        0.00000000        0.00000000        0.00000000
     307         -0.790366        1.000000        0.00000000        0.00000000        0.00000000