# Projected DOS for list 343 of 1 atoms, at iteration step i = 0, E(Fermi) =    -0.237583 a.u.
#     MO Eigenvalue [a.u.]      Occupation                 s                 p                 d
       1         -3.115895        1.000000        0.00000001        0.00000001        0.00000000
       2         -3.112717        1.000000        0.00000001        0.00000002        0.00000001
       3         -3.112103        1.000000        0.00000003        0.00000002        0.00000002
       4         -3.111180        1.000000        0.00000002        0.00000003        0.00000005
       5         -3.110810        1.000000        0.00000000        0.00000001        0.00000001
       6         -3.110575        1.000000        0.00000000        0.00000001        0.00000000
       7         -3.110067        1.000000        0.00000004        0.00000011        0.00000006
       8         -3.109817        1.000000        0.00000115        0.00000490        0.00000138
       9         -3.109660        1.000000        0.00000003        0.00000004        0.00000004
      10         -3.108831        1.000000        0.00000044        0.00000098        0.00000038
      11         -3.108678        1.000000        0.00000002        0.00000015        0.00000005
      12         -3.108578        1.000000        0.00000000        0.00000004        0.00000002
      13         -3.108350        1.000000        0.00000098        0.00000323        0.00000068
      14         -3.108163        1.000000        0.00000037        0.00000067        0.00000015
      15         -3.107948        1.000000        0.00000117        0.00000392        0.00000066
      16         -3.107865        1.000000        0.00000002        0.00000002        0.00000005
      17         -3.107703        1.000000        0.00000000        0.00000002        0.00000000
      18         -3.107683        1.000000        0.00000017        0.00000071        0.00000011
      19         -3.107641        1.000000        0.00000007        0.00000030        0.00000006
      20         -3.107604        1.000000        0.00000001        0.00000003        0.00000002
      21         -3.107402        1.000000        0.00000061        0.00000252        0.00000034
      22         -3.107115        1.000000        0.00000002        0.00000011        0.00000005
      23         -3.107013        1.000000        0.00000003        0.00000024        0.00000008
      24         -3.106750        1.000000        0.00000002        0.00000024        0.00000009
      25         -3.106619        1.000000        0.00000022        0.00000111        0.00000036
      26         -3.106567        1.000000        0.00000033        0.00000200        0.00000043
      27         -3.106546        1.000000        0.00000006        0.00000037        0.00000008
      28         -3.106258        1.000000        0.00000001        0.00000027        0.00000010
      29         -3.106103        1.000000        0.00000004        0.00000023        0.00000010
      30         -3.104674        1.000000        0.00000001        0.00000001        0.00000000
      31         -1.775522        1.000000        0.00000000        0.00000006        0.00000001
      32         -1.773964        1.000000        0.00000001        0.00000014        0.00000003
      33         -1.773454        1.000000        0.00000001        0.00000005        0.00000001
      34         -1.773008        1.000000        0.00000001        0.00000011        0.00000002
      35         -1.772581        1.000000        0.00000002        0.00000007        0.00000001
      36         -1.772213        1.000000        0.00000002        0.00000012        0.00000004
      37         -1.771852        1.000000        0.00000001        0.00000007        0.00000001
      38         -1.771444        1.000000        0.00000000        0.00000012        0.00000004
      39         -1.771233        1.000000        0.00000009        0.00000039        0.00000005
      40         -1.770977        1.000000        0.00000001        0.00000013        0.00000004
      41         -1.770760        1.000000        0.00000000        0.00000018        0.00000005
      42         -1.770111        1.000000        0.00000004        0.00000018        0.00000002
      43         -1.770034        1.000000        0.00000001        0.00000007        0.00000001
      44         -1.769495        1.000000        0.00000003        0.00000015        0.00000003
      45         -1.769421        1.000000        0.00000001        0.00000003        0.00000000
      46         -1.769063        1.000000        0.00000009        0.00000050        0.00000010
      47         -1.768532        1.000000        0.00000000        0.00000001        0.00000000
      48         -1.768412        1.000000        0.00000003        0.00000023        0.00000005
      49         -1.767811        1.000000        0.00000002        0.00000019        0.00000004
      50         -1.767614        1.000000        0.00000001        0.00000005        0.00000001
      51         -1.767477        1.000000        0.00000000        0.00000011        0.00000004
      52         -1.765531        1.000000        0.00000002        0.00000008        0.00000002
      53         -1.765088        1.000000        0.00000001        0.00000003        0.00000000
      54         -1.764557        1.000000        0.00000001        0.00000009        0.00000002
      55         -1.763772        1.000000        0.00000000        0.00000001        0.00000000
      56         -1.763328        1.000000        0.00000000        0.00000002        0.00000000
      57         -1.762925        1.000000        0.00000003        0.00000019        0.00000001
      58         -1.762506        1.000000        0.00000001        0.00000004        0.00000001
      59         -1.762119        1.000000        0.00000002        0.00000007        0.00000000
      60         -1.762053        1.000000        0.00000011        0.00000041        0.00000005
      61         -1.761895        1.000000        0.00000002        0.00000011        0.00000003
      62         -1.761602        1.000000        0.00000001        0.00000007        0.00000001
      63         -1.761509        1.000000        0.00000009        0.00000035        0.00000000
      64         -1.761377        1.000000        0.00000005        0.00000024        0.00000002
      65         -1.761171        1.000000        0.00000000        0.00000004        0.00000002
      66         -1.760998        1.000000        0.00000001        0.00000003        0.00000000
      67         -1.760877        1.000000        0.00000000        0.00000005        0.00000001
      68         -1.760806        1.000000        0.00000000        0.00000001        0.00000001
      69         -1.760684        1.000000        0.00000002        0.00000014        0.00000003
      70         -1.760645        1.000000        0.00000002        0.00000016        0.00000002
      71         -1.760442        1.000000        0.00000000        0.00000008        0.00000002
      72         -1.760098        1.000000        0.00000001        0.00000007        0.00000001
      73         -1.759962        1.000000        0.00000000        0.00000001        0.00000000
      74         -1.759824        1.000000        0.00000009        0.00000046        0.00000015
      75         -1.759787        1.000000        0.00000001        0.00000006        0.00000002
      76         -1.759638        1.000000        0.00000005        0.00000024        0.00000006
      77         -1.759601        1.000000        0.00000001        0.00000003        0.00000001
      78         -1.759512        1.000000        0.00000001        0.00000005        0.00000002
      79         -1.759406        1.000000        0.00000001        0.00000005        0.00000005
      80         -1.759287        1.000000        0.00000004        0.00000016        0.00000002
      81         -1.759176        1.000000        0.00000001        0.00000009        0.00000002
      82         -1.758872        1.000000        0.00000002        0.00000012        0.00000002
      83         -1.758781        1.000000        0.00000000        0.00000001        0.00000002
      84         -1.758726        1.000000        0.00000007        0.00000028        0.00000005
      85         -1.758559        1.000000        0.00000001        0.00000006        0.00000001
      86         -1.758378        1.000000        0.00000001        0.00000010        0.00000003
      87         -1.758294        1.000000        0.00000000        0.00000005        0.00000003
      88         -1.758087        1.000000        0.00000013        0.00000062        0.00000016
      89         -1.757987        1.000000        0.00000001        0.00000006        0.00000005
      90         -1.757734        1.000000        0.00000002        0.00000012        0.00000003
      91         -1.757649        1.000000        0.00000001        0.00000008        0.00000005
      92         -1.757529        1.000000        0.00000021        0.00000101        0.00000030
      93         -1.757404        1.000000        0.00000000        0.00000010        0.00000006
      94         -1.757324        1.000000        0.00000001        0.00000003        0.00000001
      95         -1.757187        1.000000        0.00000000        0.00000011        0.00000006
      96         -1.757137        1.000000        0.00000003        0.00000011        0.00000003
      97         -1.756770        1.000000        0.00000000        0.00000050        0.00000021
      98         -1.756598        1.000000        0.00000000        0.00000009        0.00000004
      99         -1.756513        1.000000        0.00000000        0.00000001        0.00000000
     100         -1.756186        1.000000        0.00000001        0.00000034        0.00000011
     101         -1.755847        1.000000        0.00000005        0.00000025        0.00000004
     102         -1.755716        1.000000        0.00000000        0.00000002        0.00000001
     103         -1.755306        1.000000        0.00000000        0.00000001        0.00000000
     104         -1.755052        1.000000        0.00000003        0.00000011        0.00000001
     105         -1.754765        1.000000        0.00000005        0.00000018        0.00000002
     106         -1.754094        1.000000        0.00000001        0.00000008        0.00000002
     107         -1.753681        1.000000        0.00000001        0.00000007        0.00000001
     108         -1.753548        1.000000        0.00000001        0.00000003        0.00000000
     109         -1.753256        1.000000        0.00000000        0.00000004        0.00000001
     110         -1.752675        1.000000        0.00000003        0.00000011        0.00000001
     111         -1.752502        1.000000        0.00000004        0.00000017        0.00000003
     112         -1.752253        1.000000        0.00000000        0.00000001        0.00000000
     113         -1.751643        1.000000        0.00000001        0.00000007        0.00000002
     114         -1.751317        1.000000        0.00000000        0.00000002        0.00000001
     115         -1.749193        1.000000        0.00000000        0.00000000        0.00000000
     116         -1.748137        1.000000        0.00000000        0.00000000        0.00000000
     117         -1.747283        1.000000        0.00000000        0.00000001        0.00000001
     118         -1.745962        1.000000        0.00000000        0.00000000        0.00000000
     119         -1.745880        1.000000        0.00000000        0.00000000        0.00000000
     120         -1.744143        1.000000        0.00000000        0.00000000        0.00000000
     121         -1.145318        1.000000        0.00000056        0.00000006        0.00000005
     122         -1.141162        1.000000        0.00000078        0.00000014        0.00000010
     123         -1.135518        1.000000        0.00003016        0.00000538        0.00000337
     124         -1.134356        1.000000        0.00000145        0.00000016        0.00000013
     125         -1.132797        1.000000        0.00000392        0.00000101        0.00000049
     126         -1.131675        1.000000        0.00001181        0.00000374        0.00000156
     127         -1.130657        1.000000        0.00000319        0.00000066        0.00000034
     128         -1.129329        1.000000        0.00000108        0.00000605        0.00000178
     129         -1.127805        1.000000        0.00000704        0.00000998        0.00000315
     130         -1.126970        1.000000        0.00000438        0.00000421        0.00000168
     131         -1.125100        1.000000        0.00007589        0.00000637        0.00000539
     132         -1.124640        1.000000        0.00000209        0.00000011        0.00000015
     133         -1.122028        1.000000        0.00001739        0.00000083        0.00000081
     134         -1.120887        1.000000        0.00000642        0.00000092        0.00000087
     135         -1.119308        1.000000        0.00001324        0.00001718        0.00000776
     136         -1.118408        1.000000        0.00000159        0.00000243        0.00000065
     137         -1.117769        1.000000        0.00001332        0.00000438        0.00000164
     138         -1.116570        1.000000        0.00006116        0.00001113        0.00000560
     139         -1.115096        1.000000        0.00001357        0.00000122        0.00000054
     140         -1.114402        1.000000        0.00000760        0.00001383        0.00000307
     141         -1.114039        1.000000        0.00000228        0.00000186        0.00000153
     142         -1.112381        1.000000        0.00007515        0.00000737        0.00000575
     143         -1.111588        1.000000        0.00004070        0.00002677        0.00000869
     144         -1.111356        1.000000        0.00002158        0.00001190        0.00000248
     145         -1.110913        1.000000        0.00000293        0.00000967        0.00000375
     146         -1.109631        1.000000        0.00000285        0.00002189        0.00000508
     147         -1.107338        1.000000        0.00003358        0.00000104        0.00000099
     148         -1.107163        1.000000        0.00000841        0.00001663        0.00000523
     149         -1.106911        1.000000        0.00005931        0.00000451        0.00000397
     150         -1.105904        1.000000        0.00001029        0.00000110        0.00000099
     151         -1.104513        1.000000        0.00006268        0.00000457        0.00000265
     152         -1.103753        1.000000        0.00007772        0.00001528        0.00000758
     153         -1.103233        1.000000        0.00002227        0.00000175        0.00000095
     154         -1.101116        1.000000        0.00005701        0.00000652        0.00000254
     155         -1.099878        1.000000        0.00000481        0.00002683        0.00000991
     156         -1.099527        1.000000        0.00001008        0.00000069        0.00000065
     157         -1.099360        1.000000        0.00000716        0.00000496        0.00000128
     158         -1.097449        1.000000        0.00000500        0.00001417        0.00000365
     159         -1.097246        1.000000        0.00000381        0.00000921        0.00000400
     160         -1.096336        1.000000        0.00001060        0.00000186        0.00000062
     161         -1.095776        1.000000        0.00000249        0.00000156        0.00000101
     162         -1.094258        1.000000        0.00004058        0.00003521        0.00001851
     163         -1.093701        1.000000        0.00000033        0.00000180        0.00000055
     164         -1.093107        1.000000        0.00000020        0.00000291        0.00000194
     165         -1.091600        1.000000        0.00000957        0.00000213        0.00000065
     166         -1.090890        1.000000        0.00012813        0.00000425        0.00000232
     167         -1.090283        1.000000        0.00000329        0.00000732        0.00000176
     168         -1.089378        1.000000        0.00002085        0.00001981        0.00000885
     169         -1.088506        1.000000        0.00000520        0.00002206        0.00000970
     170         -1.086931        1.000000        0.00011160        0.00001555        0.00000502
     171         -1.086367        1.000000        0.00013853        0.00001380        0.00000576
     172         -1.085327        1.000000        0.00004796        0.00000664        0.00000218
     173         -1.084766        1.000000        0.00000065        0.00000082        0.00000024
     174         -1.083961        1.000000        0.00000662        0.00000928        0.00000233
     175         -1.082920        1.000000        0.00002043        0.00000934        0.00000252
     176         -1.081700        1.000000        0.00000730        0.00001536        0.00000422
     177         -1.081031        1.000000        0.00020332        0.00001234        0.00000527
     178         -1.080558        1.000000        0.00009001        0.00003707        0.00001156
     179         -1.080415        1.000000        0.00055068        0.00003811        0.00001124
     180         -1.080047        1.000000        0.00007670        0.00001805        0.00000698
     181         -1.077309        1.000000        0.00142905        0.00003773        0.00001656
     182         -1.076601        1.000000        0.00003214        0.00000437        0.00000333
     183         -1.076342        1.000000        0.00032291        0.00000690        0.00000410
     184         -1.076154        1.000000        0.00057789        0.00007687        0.00003024
     185         -1.075469        1.000000        0.00078599        0.00002105        0.00001207
     186         -1.074904        1.000000        0.00001335        0.00000895        0.00000251
     187         -1.074160        1.000000        0.00030745        0.00000670        0.00000371
     188         -1.073364        1.000000        0.00039849        0.00001223        0.00000419
     189         -1.071841        1.000000        0.00013084        0.00002212        0.00000573
     190         -1.071436        1.000000        0.00008351        0.00000815        0.00000216
     191         -1.070358        1.000000        0.00024291        0.00000950        0.00000402
     192         -1.070160        1.000000        0.00001517        0.00000310        0.00000088
     193         -1.069551        1.000000        0.00000112        0.00000089        0.00000025
     194         -1.069042        1.000000        0.00002404        0.00001794        0.00000438
     195         -1.068018        1.000000        0.00005628        0.00001280        0.00000325
     196         -1.067683        1.000000        0.00015478        0.00000754        0.00000214
     197         -1.067094        1.000000        0.00013076        0.00000694        0.00000140
     198         -1.066200        1.000000        0.00008398        0.00001816        0.00000525
     199         -1.065105        1.000000        0.00050947        0.00001701        0.00000620
     200         -1.064600        1.000000        0.00021910        0.00000891        0.00000243
     201         -1.063825        1.000000        0.00000380        0.00000388        0.00000104
     202         -1.063672        1.000000        0.00033523        0.00002493        0.00000611
     203         -1.062915        1.000000        0.00078484        0.00004569        0.00000891
     204         -1.062259        1.000000        0.00005113        0.00000875        0.00000193
     205         -1.061986        1.000000        0.00178944        0.00008466        0.00001822
     206         -1.060822        1.000000        0.00065853        0.00001430        0.00000479
     207         -1.060230        1.000000        0.00222226        0.00007882        0.00001657
     208         -1.059971        1.000000        0.01039727        0.00025533        0.00005334
     209         -1.059399        1.000000        0.00015678        0.00000675        0.00000146
     210         -1.058798        1.000000        0.00019594        0.00001816        0.00000450
     211         -1.058498        1.000000        0.00300972        0.00007075        0.00001893
     212         -1.057049        1.000000        0.00167221        0.00008284        0.00002521
     213         -1.056896        1.000000        0.00152679        0.00003616        0.00000767
     214         -1.056403        1.000000        0.00217233        0.00006185        0.00001303
     215         -1.056079        1.000000        0.00008795        0.00000235        0.00000051
     216         -1.055624        1.000000        0.00070071        0.00002039        0.00000516
     217         -1.055288        1.000000        0.00005517        0.00000156        0.00000028
     218         -1.054828        1.000000        0.00036031        0.00000873        0.00000185
     219         -1.054413        1.000000        0.00251969        0.00006626        0.00001143
     220         -1.053990        1.000000        0.00658123        0.00013852        0.00002385
     221         -1.053598        1.000000        0.00041078        0.00001271        0.00000271
     222         -1.053387        1.000000        0.00064070        0.00001353        0.00000235
     223         -1.052953        1.000000        0.00005102        0.00000207        0.00000056
     224         -1.052779        1.000000        0.00092083        0.00003086        0.00000607
     225         -1.052376        1.000000        0.00330173        0.00008131        0.00001507
     226         -1.052297        1.000000        0.00004521        0.00001131        0.00000629
     227         -1.051819        1.000000        0.00114083        0.00002581        0.00000600
     228         -1.051536        1.000000        0.03933340        0.00080393        0.00013844
     229         -1.051232        1.000000        0.00057593        0.00001551        0.00000636
     230         -1.050581        1.000000        0.00108183        0.00010254        0.00002248
     231         -1.050140        1.000000        0.00221653        0.00020093        0.00005359
     232         -1.049834        1.000000        0.00107785        0.00002545        0.00000330
     233         -1.049588        1.000000        0.00033653        0.00001068        0.00000234
     234         -1.049506        1.000000        0.00074692        0.00001524        0.00000198
     235         -1.048565        1.000000        0.00001971        0.00003316        0.00001397
     236         -1.048103        1.000000        0.00673518        0.00017222        0.00002831
     237         -1.048023        1.000000        0.01350663        0.00024740        0.00003371
     238         -1.047651        1.000000        0.00255749        0.00004647        0.00000567
     239         -1.047305        1.000000        0.01166772        0.00021436        0.00002223
     240         -1.046707        1.000000        0.00544631        0.00011325        0.00002454
     241         -1.046592        1.000000        0.00407859        0.00008723        0.00002417
     242         -1.046281        1.000000        0.00000501        0.00001149        0.00000425
     243         -1.045974        1.000000        0.00004226        0.00001590        0.00000484
     244         -1.045866        1.000000        0.00107160        0.00004401        0.00000891
     245         -1.045771        1.000000        0.00089928        0.00018599        0.00004256
     246         -1.045301        1.000000        0.00079507        0.00004212        0.00000817
     247         -1.045020        1.000000        0.00961180        0.00064083        0.00011515
     248         -1.043956        1.000000        0.00032508        0.00001011        0.00000165
     249         -1.043818        1.000000        0.00120098        0.00004611        0.00000951
     250         -1.043244        1.000000        0.00009122        0.00002542        0.00000652
     251         -1.043119        1.000000        0.00007581        0.00001076        0.00000265
     252         -1.042993        1.000000        0.00029423        0.00001111        0.00000267
     253         -1.042515        1.000000        0.00021688        0.00005723        0.00001229
     254         -1.041302        1.000000        0.00184123        0.00004139        0.00000632
     255         -1.041116        1.000000        0.00778012        0.00016245        0.00002279
     256         -1.040594        1.000000        0.00038535        0.00000745        0.00000091
     257         -1.040094        1.000000        0.01051680        0.00019395        0.00001480
     258         -1.039599        1.000000        0.00153976        0.00004064        0.00000697
     259         -1.039408        1.000000        0.00244919        0.00009531        0.00001946
     260         -1.038970        1.000000        0.00148130        0.00003040        0.00000360
     261         -1.038561        1.000000        0.00042316        0.00000796        0.00000068
     262         -1.038022        1.000000        0.00004561        0.00000363        0.00000066
     263         -1.037841        1.000000        0.00048269        0.00001156        0.00000204
     264         -1.036991        1.000000        0.00028738        0.00000709        0.00000117
     265         -1.036854        1.000000        0.00969728        0.00019766        0.00001197
     266         -1.035910        1.000000        0.00021011        0.00000570        0.00000050
     267         -1.035115        1.000000        0.00148349        0.00004084        0.00000361
     268         -1.034275        1.000000        0.00048442        0.00001675        0.00000197
     269         -1.033697        1.000000        0.00000244        0.00000178        0.00000059
     270         -1.033444        1.000000        0.07585540        0.00212610        0.00018417
     271         -1.033385        1.000000        0.05157515        0.00140272        0.00011697
     272         -1.033262        1.000000        0.00023634        0.00000560        0.00000034
     273         -1.032346        1.000000        0.15579457        0.00470602        0.00044431
     274         -1.031626        1.000000        0.00052310        0.00001437        0.00000117
     275         -1.030746        1.000000        0.00000006        0.00000000        0.00000000
     276         -1.029780        1.000000        0.00000030        0.00000016        0.00000005
     277         -1.028980        1.000000        0.00000045        0.00000026        0.00000010
     278         -1.027492        1.000000        0.00230732        0.00010723        0.00001497
     279         -1.025795        1.000000        0.00005008        0.00000120        0.00000012
     280         -1.023990        1.000000        0.00176208        0.00009832        0.00001914
     281         -1.022755        1.000000        0.00001047        0.00000049        0.00000008
     282         -1.019871        1.000000        0.00000000        0.00000000        0.00000000
     283         -1.017737        1.000000        0.00000706        0.00000044        0.00000005
     284         -1.012409        1.000000        0.00000653        0.00000024        0.00000004
     285         -1.010522        1.000000        0.00000001        0.00000000        0.00000000
     286         -0.880961        1.000000        0.00000860        0.00000680        0.00000334
     287         -0.861761        1.000000        0.00000566        0.00000495        0.00000204
     288         -0.860652        1.000000        0.00000897        0.00001122        0.00000375
     289         -0.854811        1.000000        0.00000320        0.00000446        0.00000160
     290         -0.853189        1.000000        0.00000296        0.00000316        0.00000141
     291         -0.838407        1.000000        0.00000956        0.00001318        0.00000419
     292         -0.837131        1.000000        0.00000903        0.00001053        0.00000340
     293         -0.835422        1.000000        0.00000259        0.00000359        0.00000105
     294         -0.832873        1.000000        0.00000237        0.00000273        0.00000077
     295         -0.813092        1.000000        0.00000357        0.00000853        0.00000211
     296         -0.811309        1.000000        0.00000017        0.00000098        0.00000047
     297         -0.805633        1.000000        0.00000635        0.00000705        0.00000310
     298         -0.800994        1.000000        0.00000540        0.00000526        0.00000286
     299         -0.798544        1.000000        0.00002242        0.00002624        0.00000837
     300         -0.797176        1.000000        0.00000051        0.00000218        0.00000130
     301         -0.796065        1.000000        0.00000172        0.00000251        0.00000105
     302         -0.795247        1.000000        0.00000295        0.00000634        0.00000208
     303         -0.794465        1.000000        0.00000479        0.00000853        0.00000186
     304         -0.792558        1.000000        0.00000003        0.00000133        0.00000045
     305         -0.791532        1.000000        0.00000001        0.00000283        0.00000086
     306         -0.790931        1.000000        0.00000289        0.00000439        0.00000139
     307         -0.790366        1.000000        0.00000160        0.00000376        0.00000216