# Projected DOS for list 7 of 1 atoms, at iteration step i = 0, E(Fermi) =    -0.237583 a.u.
#     MO Eigenvalue [a.u.]      Occupation                 s                 p                 d
       1         -3.115895        1.000000        0.00000000        0.00000000        0.00000000
       2         -3.112717        1.000000        0.00000001        0.00000000        0.00000000
       3         -3.112103        1.000000        0.00000000        0.00000000        0.00000000
       4         -3.111180        1.000000        0.00000000        0.00000000        0.00000000
       5         -3.110810        1.000000        0.00000001        0.00000000        0.00000000
       6         -3.110575        1.000000        0.00000003        0.00000000        0.00000000
       7         -3.110067        1.000000        0.00000001        0.00000001        0.00000000
       8         -3.109817        1.000000        0.00000001        0.00000002        0.00000000
       9         -3.109660        1.000000        0.00000000        0.00000000        0.00000000
      10         -3.108831        1.000000        0.00000005        0.00000006        0.00000000
      11         -3.108678        1.000000        0.00000003        0.00000004        0.00000000
      12         -3.108578        1.000000        0.00000001        0.00000000        0.00000000
      13         -3.108350        1.000000        0.00000000        0.00000001        0.00000000
      14         -3.108163        1.000000        0.00000003        0.00000006        0.00000000
      15         -3.107948        1.000000        0.00000000        0.00000000        0.00000000
      16         -3.107865        1.000000        0.00000000        0.00000000        0.00000000
      17         -3.107703        1.000000        0.00000000        0.00000000        0.00000000
      18         -3.107683        1.000000        0.00000000        0.00000000        0.00000000
      19         -3.107641        1.000000        0.00000000        0.00000000        0.00000000
      20         -3.107604        1.000000        0.00000000        0.00000000        0.00000000
      21         -3.107402        1.000000        0.00000000        0.00000000        0.00000000
      22         -3.107115        1.000000        0.00000001        0.00000001        0.00000000
      23         -3.107013        1.000000        0.00000000        0.00000000        0.00000000
      24         -3.106750        1.000000        0.00000000        0.00000000        0.00000000
      25         -3.106619        1.000000        0.00000000        0.00000000        0.00000000
      26         -3.106567        1.000000        0.00000000        0.00000000        0.00000000
      27         -3.106546        1.000000        0.00000000        0.00000000        0.00000000
      28         -3.106258        1.000000        0.00000000        0.00000000        0.00000000
      29         -3.106103        1.000000        0.00000000        0.00000000        0.00000000
      30         -3.104674        1.000000        0.00000000        0.00000001        0.00000000
      31         -1.775522        1.000000        0.00000000        0.00000000        0.00000000
      32         -1.773964        1.000000        0.00000000        0.00000000        0.00000000
      33         -1.773454        1.000000        0.00000000        0.00000000        0.00000000
      34         -1.773008        1.000000        0.00000000        0.00000000        0.00000000
      35         -1.772581        1.000000        0.00000000        0.00000000        0.00000000
      36         -1.772213        1.000000        0.00000000        0.00000000        0.00000000
      37         -1.771852        1.000000        0.00000000        0.00000000        0.00000000
      38         -1.771444        1.000000        0.00000000        0.00000000        0.00000000
      39         -1.771233        1.000000        0.00000000        0.00000000        0.00000000
      40         -1.770977        1.000000        0.00000000        0.00000000        0.00000000
      41         -1.770760        1.000000        0.00000000        0.00000000        0.00000000
      42         -1.770111        1.000000        0.00000000        0.00000000        0.00000000
      43         -1.770034        1.000000        0.00000000        0.00000000        0.00000000
      44         -1.769495        1.000000        0.00000000        0.00000000        0.00000000
      45         -1.769421        1.000000        0.00000000        0.00000000        0.00000000
      46         -1.769063        1.000000        0.00000000        0.00000000        0.00000000
      47         -1.768532        1.000000        0.00000000        0.00000000        0.00000000
      48         -1.768412        1.000000        0.00000000        0.00000000        0.00000000
      49         -1.767811        1.000000        0.00000000        0.00000000        0.00000000
      50         -1.767614        1.000000        0.00000000        0.00000000        0.00000000
      51         -1.767477        1.000000        0.00000000        0.00000000        0.00000000
      52         -1.765531        1.000000        0.00000000        0.00000000        0.00000000
      53         -1.765088        1.000000        0.00000000        0.00000000        0.00000000
      54         -1.764557        1.000000        0.00000000        0.00000000        0.00000000
      55         -1.763772        1.000000        0.00000000        0.00000000        0.00000000
      56         -1.763328        1.000000        0.00000000        0.00000000        0.00000000
      57         -1.762925        1.000000        0.00000000        0.00000000        0.00000000
      58         -1.762506        1.000000        0.00000000        0.00000000        0.00000000
      59         -1.762119        1.000000        0.00000000        0.00000000        0.00000000
      60         -1.762053        1.000000        0.00000000        0.00000000        0.00000000
      61         -1.761895        1.000000        0.00000000        0.00000000        0.00000000
      62         -1.761602        1.000000        0.00000000        0.00000000        0.00000000
      63         -1.761509        1.000000        0.00000000        0.00000000        0.00000000
      64         -1.761377        1.000000        0.00000000        0.00000000        0.00000000
      65         -1.761171        1.000000        0.00000000        0.00000000        0.00000000
      66         -1.760998        1.000000        0.00000000        0.00000000        0.00000000
      67         -1.760877        1.000000        0.00000000        0.00000000        0.00000000
      68         -1.760806        1.000000        0.00000000        0.00000000        0.00000000
      69         -1.760684        1.000000        0.00000000        0.00000000        0.00000000
      70         -1.760645        1.000000        0.00000000        0.00000000        0.00000000
      71         -1.760442        1.000000        0.00000000        0.00000000        0.00000000
      72         -1.760098        1.000000        0.00000000        0.00000000        0.00000000
      73         -1.759962        1.000000        0.00000000        0.00000000        0.00000000
      74         -1.759824        1.000000        0.00000000        0.00000000        0.00000000
      75         -1.759787        1.000000        0.00000000        0.00000000        0.00000000
      76         -1.759638        1.000000        0.00000000        0.00000000        0.00000000
      77         -1.759601        1.000000        0.00000000        0.00000000        0.00000000
      78         -1.759512        1.000000        0.00000000        0.00000000        0.00000000
      79         -1.759406        1.000000        0.00000000        0.00000000        0.00000000
      80         -1.759287        1.000000        0.00000000        0.00000000        0.00000000
      81         -1.759176        1.000000        0.00000000        0.00000000        0.00000000
      82         -1.758872        1.000000        0.00000000        0.00000000        0.00000000
      83         -1.758781        1.000000        0.00000000        0.00000000        0.00000000
      84         -1.758726        1.000000        0.00000000        0.00000000        0.00000000
      85         -1.758559        1.000000        0.00000000        0.00000000        0.00000000
      86         -1.758378        1.000000        0.00000000        0.00000000        0.00000000
      87         -1.758294        1.000000        0.00000000        0.00000000        0.00000000
      88         -1.758087        1.000000        0.00000000        0.00000000        0.00000000
      89         -1.757987        1.000000        0.00000000        0.00000000        0.00000000
      90         -1.757734        1.000000        0.00000000        0.00000000        0.00000000
      91         -1.757649        1.000000        0.00000000        0.00000000        0.00000000
      92         -1.757529        1.000000        0.00000000        0.00000000        0.00000000
      93         -1.757404        1.000000        0.00000000        0.00000000        0.00000000
      94         -1.757324        1.000000        0.00000000        0.00000000        0.00000000
      95         -1.757187        1.000000        0.00000000        0.00000000        0.00000000
      96         -1.757137        1.000000        0.00000000        0.00000000        0.00000000
      97         -1.756770        1.000000        0.00000000        0.00000000        0.00000000
      98         -1.756598        1.000000        0.00000000        0.00000000        0.00000000
      99         -1.756513        1.000000        0.00000000        0.00000000        0.00000000
     100         -1.756186        1.000000        0.00000000        0.00000000        0.00000000
     101         -1.755847        1.000000        0.00000000        0.00000000        0.00000000
     102         -1.755716        1.000000        0.00000000        0.00000000        0.00000000
     103         -1.755306        1.000000        0.00000000        0.00000000        0.00000000
     104         -1.755052        1.000000        0.00000000        0.00000000        0.00000000
     105         -1.754765        1.000000        0.00000000        0.00000000        0.00000000
     106         -1.754094        1.000000        0.00000000        0.00000000        0.00000000
     107         -1.753681        1.000000        0.00000000        0.00000000        0.00000000
     108         -1.753548        1.000000        0.00000000        0.00000000        0.00000000
     109         -1.753256        1.000000        0.00000000        0.00000000        0.00000000
     110         -1.752675        1.000000        0.00000000        0.00000000        0.00000000
     111         -1.752502        1.000000        0.00000000        0.00000000        0.00000000
     112         -1.752253        1.000000        0.00000000        0.00000000        0.00000000
     113         -1.751643        1.000000        0.00000000        0.00000000        0.00000000
     114         -1.751317        1.000000        0.00000000        0.00000000        0.00000000
     115         -1.749193        1.000000        0.00000000        0.00000000        0.00000000
     116         -1.748137        1.000000        0.00000000        0.00000000        0.00000000
     117         -1.747283        1.000000        0.00000000        0.00000000        0.00000000
     118         -1.745962        1.000000        0.00000000        0.00000000        0.00000000
     119         -1.745880        1.000000        0.00000000        0.00000000        0.00000000
     120         -1.744143        1.000000        0.00000000        0.00000000        0.00000000
     121         -1.145318        1.000000        0.00013517        0.00000553        0.00000475
     122         -1.141162        1.000000        0.00002642        0.00000975        0.00000144
     123         -1.135518        1.000000        0.00094130        0.00018674        0.00004200
     124         -1.134356        1.000000        0.00000017        0.00004818        0.00000375
     125         -1.132797        1.000000        0.00000065        0.00000702        0.00000117
     126         -1.131675        1.000000        0.00054910        0.00011886        0.00002312
     127         -1.130657        1.000000        0.00003809        0.00009354        0.00000431
     128         -1.129329        1.000000        0.00100468        0.00021042        0.00004256
     129         -1.127805        1.000000        0.00012056        0.00000143        0.00001706
     130         -1.126970        1.000000        0.00077242        0.00004072        0.00001758
     131         -1.125100        1.000000        0.00009250        0.00000292        0.00001408
     132         -1.124640        1.000000        0.00093413        0.00012228        0.00002429
     133         -1.122028        1.000000        0.00021307        0.00001283        0.00000754
     134         -1.120887        1.000000        0.00007833        0.00000690        0.00000348
     135         -1.119308        1.000000        0.01019651        0.00037721        0.00028984
     136         -1.118408        1.000000        0.00158675        0.00005798        0.00004457
     137         -1.117769        1.000000        0.00113476        0.00002612        0.00003537
     138         -1.116570        1.000000        0.00075893        0.00015141        0.00002743
     139         -1.115096        1.000000        0.00013418        0.00050299        0.00002433
     140         -1.114402        1.000000        0.00306412        0.00122285        0.00013279
     141         -1.114039        1.000000        0.00041210        0.00025841        0.00002006
     142         -1.112381        1.000000        0.00002657        0.00027209        0.00001877
     143         -1.111588        1.000000        0.00115396        0.00018392        0.00004575
     144         -1.111356        1.000000        0.01402759        0.00028403        0.00033210
     145         -1.110913        1.000000        0.00045261        0.00003150        0.00001032
     146         -1.109631        1.000000        0.00601434        0.00015285        0.00017650
     147         -1.107338        1.000000        0.00059591        0.00003070        0.00000956
     148         -1.107163        1.000000        0.00123179        0.00074126        0.00004577
     149         -1.106911        1.000000        0.00554837        0.00012974        0.00010332
     150         -1.105904        1.000000        0.00017222        0.00020936        0.00000982
     151         -1.104513        1.000000        0.00008738        0.00000968        0.00000591
     152         -1.103753        1.000000        0.00126735        0.00000886        0.00002542
     153         -1.103233        1.000000        0.00368141        0.00007791        0.00008430
     154         -1.101116        1.000000        0.01951428        0.00022031        0.00031297
     155         -1.099878        1.000000        0.00608642        0.00064806        0.00007771
     156         -1.099527        1.000000        0.00000027        0.00019932        0.00000486
     157         -1.099360        1.000000        0.00009135        0.00013113        0.00000239
     158         -1.097449        1.000000        0.00198822        0.00063538        0.00005322
     159         -1.097246        1.000000        0.00257820        0.00033612        0.00003813
     160         -1.096336        1.000000        0.00110772        0.00040584        0.00003119
     161         -1.095776        1.000000        0.00012447        0.00001206        0.00000115
     162         -1.094258        1.000000        0.00123447        0.00001674        0.00005917
     163         -1.093701        1.000000        0.00337980        0.00056565        0.00006587
     164         -1.093107        1.000000        0.00674036        0.00067906        0.00010716
     165         -1.091600        1.000000        0.00196722        0.00016137        0.00002434
     166         -1.090890        1.000000        0.01087130        0.00008548        0.00017349
     167         -1.090283        1.000000        0.00145328        0.00015604        0.00002997
     168         -1.089378        1.000000        0.00302885        0.00000912        0.00004743
     169         -1.088506        1.000000        0.00227340        0.00018369        0.00003192
     170         -1.086931        1.000000        0.00039053        0.00001173        0.00001277
     171         -1.086367        1.000000        0.00379106        0.00004905        0.00003883
     172         -1.085327        1.000000        0.00438909        0.00062795        0.00006703
     173         -1.084766        1.000000        0.00002516        0.00012961        0.00000588
     174         -1.083961        1.000000        0.00046319        0.00021262        0.00002565
     175         -1.082920        1.000000        0.00928541        0.00005433        0.00008922
     176         -1.081700        1.000000        0.00009745        0.00008342        0.00003721
     177         -1.081031        1.000000        0.00064085        0.00001071        0.00001183
     178         -1.080558        1.000000        0.00738624        0.00035628        0.00008580
     179         -1.080415        1.000000        0.00771622        0.00036680        0.00005379
     180         -1.080047        1.000000        0.00233338        0.00091888        0.00002934
     181         -1.077309        1.000000        0.00122276        0.00001384        0.00000808
     182         -1.076601        1.000000        0.00556537        0.00002505        0.00005326
     183         -1.076342        1.000000        0.00836055        0.00003282        0.00006825
     184         -1.076154        1.000000        0.00311407        0.00010282        0.00002034
     185         -1.075469        1.000000        0.01350666        0.00015858        0.00010318
     186         -1.074904        1.000000        0.00908346        0.00055198        0.00005947
     187         -1.074160        1.000000        0.00159571        0.00075211        0.00002458
     188         -1.073364        1.000000        0.00608335        0.00004489        0.00005073
     189         -1.071841        1.000000        0.00366879        0.00009597        0.00003103
     190         -1.071436        1.000000        0.00159827        0.00077521        0.00002829
     191         -1.070358        1.000000        0.00000823        0.00006918        0.00000096
     192         -1.070160        1.000000        0.00019206        0.00056637        0.00000156
     193         -1.069551        1.000000        0.00124642        0.00072550        0.00000685
     194         -1.069042        1.000000        0.00021096        0.00012197        0.00000211
     195         -1.068018        1.000000        0.00000306        0.00109174        0.00000637
     196         -1.067683        1.000000        0.00021003        0.00014296        0.00000243
     197         -1.067094        1.000000        0.00000248        0.00000697        0.00000189
     198         -1.066200        1.000000        0.00024124        0.00004880        0.00000087
     199         -1.065105        1.000000        0.00014086        0.00004015        0.00000706
     200         -1.064600        1.000000        0.00741533        0.00041081        0.00003548
     201         -1.063825        1.000000        0.00008255        0.00009164        0.00001836
     202         -1.063672        1.000000        0.00028392        0.00011920        0.00003201
     203         -1.062915        1.000000        0.00476528        0.00012200        0.00003178
     204         -1.062259        1.000000        0.00023429        0.00008911        0.00000706
     205         -1.061986        1.000000        0.00002091        0.00007225        0.00002066
     206         -1.060822        1.000000        0.00029503        0.00001777        0.00000435
     207         -1.060230        1.000000        0.00157181        0.00017291        0.00003233
     208         -1.059971        1.000000        0.00054608        0.00001786        0.00000919
     209         -1.059399        1.000000        0.00241473        0.00002405        0.00002615
     210         -1.058798        1.000000        0.00029553        0.00010200        0.00002217
     211         -1.058498        1.000000        0.00075868        0.00023652        0.00005873
     212         -1.057049        1.000000        0.01146860        0.00009947        0.00002572
     213         -1.056896        1.000000        0.00045373        0.00003689        0.00003826
     214         -1.056403        1.000000        0.00317980        0.00005986        0.00002468
     215         -1.056079        1.000000        0.00058583        0.00000379        0.00000336
     216         -1.055624        1.000000        0.00001019        0.00000881        0.00001634
     217         -1.055288        1.000000        0.00006222        0.00001650        0.00000100
     218         -1.054828        1.000000        0.00033391        0.00006324        0.00000874
     219         -1.054413        1.000000        0.00205875        0.00009700        0.00002566
     220         -1.053990        1.000000        0.00048740        0.00002472        0.00001070
     221         -1.053598        1.000000        0.00055952        0.00001287        0.00002032
     222         -1.053387        1.000000        0.00236443        0.00008702        0.00000783
     223         -1.052953        1.000000        0.01392706        0.00009880        0.00005380
     224         -1.052779        1.000000        0.01054424        0.00005715        0.00003162
     225         -1.052376        1.000000        0.00258926        0.00001326        0.00001433
     226         -1.052297        1.000000        0.00008494        0.00000504        0.00000221
     227         -1.051819        1.000000        0.01404518        0.00021301        0.00008760
     228         -1.051536        1.000000        0.00810230        0.00007785        0.00004940
     229         -1.051232        1.000000        0.02699841        0.00014831        0.00012108
     230         -1.050581        1.000000        0.00248703        0.00017157        0.00002114
     231         -1.050140        1.000000        0.00000153        0.00023675        0.00004090
     232         -1.049834        1.000000        0.00051384        0.00001149        0.00000184
     233         -1.049588        1.000000        0.00001293        0.00000199        0.00000188
     234         -1.049506        1.000000        0.00006431        0.00000538        0.00000248
     235         -1.048565        1.000000        0.00077762        0.00000393        0.00000499
     236         -1.048103        1.000000        0.00370430        0.00003577        0.00003171
     237         -1.048023        1.000000        0.01081358        0.00003394        0.00003783
     238         -1.047651        1.000000        0.00488871        0.00002274        0.00003252
     239         -1.047305        1.000000        0.00613316        0.00005994        0.00005217
     240         -1.046707        1.000000        0.00044900        0.00000825        0.00000139
     241         -1.046592        1.000000        0.00023295        0.00000592        0.00000100
     242         -1.046281        1.000000        0.00032088        0.00000476        0.00000360
     243         -1.045974        1.000000        0.00043924        0.00002339        0.00000808
     244         -1.045866        1.000000        0.00018813        0.00000203        0.00000222
     245         -1.045771        1.000000        0.00075426        0.00005901        0.00005222
     246         -1.045301        1.000000        0.07961576        0.00047960        0.00023098
     247         -1.045020        1.000000        0.00356251        0.00006046        0.00003505
     248         -1.043956        1.000000        0.00281839        0.00000682        0.00003379
     249         -1.043818        1.000000        0.00302295        0.00006527        0.00003333
     250         -1.043244        1.000000        0.00622618        0.00004933        0.00005284
     251         -1.043119        1.000000        0.00068732        0.00001043        0.00000452
     252         -1.042993        1.000000        0.00010177        0.00000414        0.00000354
     253         -1.042515        1.000000        0.00001047        0.00000113        0.00001255
     254         -1.041302        1.000000        0.00000857        0.00001263        0.00000495
     255         -1.041116        1.000000        0.00060814        0.00010231        0.00001592
     256         -1.040594        1.000000        0.00001531        0.00000282        0.00000162
     257         -1.040094        1.000000        0.00015614        0.00002597        0.00003086
     258         -1.039599        1.000000        0.00000595        0.00000705        0.00000217
     259         -1.039408        1.000000        0.00305062        0.00005825        0.00001596
     260         -1.038970        1.000000        0.00133859        0.00001980        0.00001079
     261         -1.038561        1.000000        0.00008513        0.00001358        0.00000931
     262         -1.038022        1.000000        0.00025087        0.00000762        0.00000234
     263         -1.037841        1.000000        0.00022584        0.00000788        0.00000452
     264         -1.036991        1.000000        0.00707890        0.00006738        0.00003689
     265         -1.036854        1.000000        0.03345246        0.00027243        0.00015601
     266         -1.035910        1.000000        0.00078840        0.00000827        0.00000453
     267         -1.035115        1.000000        0.00301155        0.00001728        0.00000555
     268         -1.034275        1.000000        0.00086901        0.00001762        0.00000386
     269         -1.033697        1.000000        0.00019229        0.00000100        0.00000048
     270         -1.033444        1.000000        0.00158437        0.00009351        0.00001061
     271         -1.033385        1.000000        0.00013016        0.00004279        0.00000533
     272         -1.033262        1.000000        0.00035807        0.00001201        0.00000146
     273         -1.032346        1.000000        0.00075261        0.00001362        0.00000493
     274         -1.031626        1.000000        0.00000040        0.00000149        0.00000013
     275         -1.030746        1.000000        0.00000019        0.00000010        0.00000005
     276         -1.029780        1.000000        0.00001024        0.00000101        0.00000003
     277         -1.028980        1.000000        0.00000022        0.00000096        0.00000038
     278         -1.027492        1.000000        0.00177549        0.00058430        0.00036461
     279         -1.025795        1.000000        0.00174717        0.00005806        0.00000666
     280         -1.023990        1.000000        0.00000403        0.00003882        0.00005966
     281         -1.022755        1.000000        0.00000064        0.00000106        0.00000080
     282         -1.019871        1.000000        0.00000031        0.00000096        0.00000006
     283         -1.017737        1.000000        0.05213011        0.00384300        0.00088081
     284         -1.012409        1.000000        0.00000004        0.00000005        0.00000001
     285         -1.010522        1.000000        0.00000056        0.00000002        0.00000003
     286         -0.880961        1.000000        0.00000029        0.00000019        0.00000000
     287         -0.861761        1.000000        0.00000004        0.00000008        0.00000000
     288         -0.860652        1.000000        0.00000002        0.00000001        0.00000000
     289         -0.854811        1.000000        0.00000024        0.00000019        0.00000000
     290         -0.853189        1.000000        0.00000003        0.00000006        0.00000001
     291         -0.838407        1.000000        0.00000002        0.00000002        0.00000000
     292         -0.837131        1.000000        0.00000006        0.00000004        0.00000000
     293         -0.835422        1.000000        0.00000000        0.00000003        0.00000000
     294         -0.832873        1.000000        0.00000001        0.00000001        0.00000000
     295         -0.813092        1.000000        0.00000002        0.00000003        0.00000000
     296         -0.811309        1.000000        0.00000002        0.00000002        0.00000000
     297         -0.805633        1.000000        0.00000023        0.00000012        0.00000000
     298         -0.800994        1.000000        0.00000012        0.00000009        0.00000000
     299         -0.798544        1.000000        0.00000000        0.00000000        0.00000000
     300         -0.797176        1.000000        0.00000016        0.00000010        0.00000000
     301         -0.796065        1.000000        0.00000002        0.00000001        0.00000000
     302         -0.795247        1.000000        0.00000001        0.00000000        0.00000000
     303         -0.794465        1.000000        0.00000005        0.00000004        0.00000000
     304         -0.792558        1.000000        0.00000000        0.00000001        0.00000000
     305         -0.791532        1.000000        0.00000020        0.00000016        0.00000000
     306         -0.790931        1.000000        0.00000002        0.00000003        0.00000000
     307         -0.790366        1.000000        0.00000000        0.00000002        0.00000000