# Projected DOS for atomic kind Hb at iteration step i = 0, E(Fermi) =    -0.237583 a.u.
#     MO Eigenvalue [a.u.]      Occupation                 s                 p
       1         -3.115895        1.000000        0.00000000        0.00000000
       2         -3.112717        1.000000        0.00000000        0.00000000
       3         -3.112103        1.000000        0.00000000        0.00000000
       4         -3.111180        1.000000        0.00000000        0.00000000
       5         -3.110810        1.000000        0.00000000        0.00000000
       6         -3.110575        1.000000        0.00000000        0.00000000
       7         -3.110067        1.000000        0.00000000        0.00000000
       8         -3.109817        1.000000        0.00000000        0.00000000
       9         -3.109660        1.000000        0.00000000        0.00000000
      10         -3.108831        1.000000        0.00000000        0.00000000
      11         -3.108678        1.000000        0.00000000        0.00000000
      12         -3.108578        1.000000        0.00000000        0.00000000
      13         -3.108350        1.000000        0.00000000        0.00000000
      14         -3.108163        1.000000        0.00000000        0.00000000
      15         -3.107948        1.000000        0.00000000        0.00000000
      16         -3.107865        1.000000        0.00000000        0.00000000
      17         -3.107703        1.000000        0.00000000        0.00000000
      18         -3.107683        1.000000        0.00000000        0.00000000
      19         -3.107641        1.000000        0.00000000        0.00000000
      20         -3.107604        1.000000        0.00000000        0.00000000
      21         -3.107402        1.000000        0.00000000        0.00000000
      22         -3.107115        1.000000        0.00000000        0.00000000
      23         -3.107013        1.000000        0.00000000        0.00000000
      24         -3.106750        1.000000        0.00000000        0.00000000
      25         -3.106619        1.000000        0.00000000        0.00000000
      26         -3.106567        1.000000        0.00000000        0.00000000
      27         -3.106546        1.000000        0.00000000        0.00000000
      28         -3.106258        1.000000        0.00000000        0.00000000
      29         -3.106103        1.000000        0.00000000        0.00000000
      30         -3.104674        1.000000        0.00000000        0.00000000
      31         -1.775522        1.000000        0.00000000        0.00000000
      32         -1.773964        1.000000        0.00000000        0.00000000
      33         -1.773454        1.000000        0.00000000        0.00000000
      34         -1.773008        1.000000        0.00000000        0.00000000
      35         -1.772581        1.000000        0.00000000        0.00000000
      36         -1.772213        1.000000        0.00000000        0.00000000
      37         -1.771852        1.000000        0.00000000        0.00000000
      38         -1.771444        1.000000        0.00000000        0.00000000
      39         -1.771233        1.000000        0.00000000        0.00000000
      40         -1.770977        1.000000        0.00000000        0.00000000
      41         -1.770760        1.000000        0.00000000        0.00000000
      42         -1.770111        1.000000        0.00000000        0.00000000
      43         -1.770034        1.000000        0.00000000        0.00000000
      44         -1.769495        1.000000        0.00000000        0.00000000
      45         -1.769421        1.000000        0.00000000        0.00000000
      46         -1.769063        1.000000        0.00000000        0.00000000
      47         -1.768532        1.000000        0.00000000        0.00000000
      48         -1.768412        1.000000        0.00000000        0.00000000
      49         -1.767811        1.000000        0.00000000        0.00000000
      50         -1.767614        1.000000        0.00000000        0.00000000
      51         -1.767477        1.000000        0.00000000        0.00000000
      52         -1.765531        1.000000        0.00000000        0.00000000
      53         -1.765088        1.000000        0.00000000        0.00000000
      54         -1.764557        1.000000        0.00000000        0.00000000
      55         -1.763772        1.000000        0.00000000        0.00000000
      56         -1.763328        1.000000        0.00000000        0.00000000
      57         -1.762925        1.000000        0.00000000        0.00000000
      58         -1.762506        1.000000        0.00000000        0.00000000
      59         -1.762119        1.000000        0.00000000        0.00000000
      60         -1.762053        1.000000        0.00000000        0.00000000
      61         -1.761895        1.000000        0.00000000        0.00000000
      62         -1.761602        1.000000        0.00000000        0.00000000
      63         -1.761509        1.000000        0.00000000        0.00000000
      64         -1.761377        1.000000        0.00000000        0.00000000
      65         -1.761171        1.000000        0.00000000        0.00000000
      66         -1.760998        1.000000        0.00000000        0.00000000
      67         -1.760877        1.000000        0.00000000        0.00000000
      68         -1.760806        1.000000        0.00000000        0.00000000
      69         -1.760684        1.000000        0.00000000        0.00000000
      70         -1.760645        1.000000        0.00000000        0.00000000
      71         -1.760442        1.000000        0.00000000        0.00000000
      72         -1.760098        1.000000        0.00000000        0.00000000
      73         -1.759962        1.000000        0.00000000        0.00000000
      74         -1.759824        1.000000        0.00000000        0.00000000
      75         -1.759787        1.000000        0.00000000        0.00000000
      76         -1.759638        1.000000        0.00000000        0.00000000
      77         -1.759601        1.000000        0.00000000        0.00000000
      78         -1.759512        1.000000        0.00000000        0.00000000
      79         -1.759406        1.000000        0.00000000        0.00000000
      80         -1.759287        1.000000        0.00000000        0.00000000
      81         -1.759176        1.000000        0.00000000        0.00000000
      82         -1.758872        1.000000        0.00000000        0.00000000
      83         -1.758781        1.000000        0.00000000        0.00000000
      84         -1.758726        1.000000        0.00000000        0.00000000
      85         -1.758559        1.000000        0.00000000        0.00000000
      86         -1.758378        1.000000        0.00000000        0.00000000
      87         -1.758294        1.000000        0.00000000        0.00000000
      88         -1.758087        1.000000        0.00000000        0.00000000
      89         -1.757987        1.000000        0.00000000        0.00000000
      90         -1.757734        1.000000        0.00000000        0.00000000
      91         -1.757649        1.000000        0.00000000        0.00000000
      92         -1.757529        1.000000        0.00000000        0.00000000
      93         -1.757404        1.000000        0.00000000        0.00000000
      94         -1.757324        1.000000        0.00000000        0.00000000
      95         -1.757187        1.000000        0.00000000        0.00000000
      96         -1.757137        1.000000        0.00000000        0.00000000
      97         -1.756770        1.000000        0.00000000        0.00000000
      98         -1.756598        1.000000        0.00000000        0.00000000
      99         -1.756513        1.000000        0.00000000        0.00000000
     100         -1.756186        1.000000        0.00000000        0.00000000
     101         -1.755847        1.000000        0.00000000        0.00000000
     102         -1.755716        1.000000        0.00000000        0.00000000
     103         -1.755306        1.000000        0.00000000        0.00000000
     104         -1.755052        1.000000        0.00000000        0.00000000
     105         -1.754765        1.000000        0.00000000        0.00000000
     106         -1.754094        1.000000        0.00000000        0.00000000
     107         -1.753681        1.000000        0.00000000        0.00000000
     108         -1.753548        1.000000        0.00000000        0.00000000
     109         -1.753256        1.000000        0.00000000        0.00000000
     110         -1.752675        1.000000        0.00000000        0.00000000
     111         -1.752502        1.000000        0.00000000        0.00000000
     112         -1.752253        1.000000        0.00000000        0.00000000
     113         -1.751643        1.000000        0.00000000        0.00000000
     114         -1.751317        1.000000        0.00000000        0.00000000
     115         -1.749193        1.000000        0.00000000        0.00000000
     116         -1.748137        1.000000        0.00000000        0.00000000
     117         -1.747283        1.000000        0.00000000        0.00000000
     118         -1.745962        1.000000        0.00000000        0.00000000
     119         -1.745880        1.000000        0.00000000        0.00000000
     120         -1.744143        1.000000        0.00000000        0.00000000
     121         -1.145318        1.000000        0.00155311        0.00135014
     122         -1.141162        1.000000        0.00153104        0.00131697
     123         -1.135518        1.000000        0.00103632        0.00075543
     124         -1.134356        1.000000        0.00677658        0.00448031
     125         -1.132797        1.000000        0.00884146        0.00593097
     126         -1.131675        1.000000        0.01347479        0.00797483
     127         -1.130657        1.000000        0.02085952        0.01433098
     128         -1.129329        1.000000        0.00289507        0.00214331
     129         -1.127805        1.000000        0.00158131        0.00104987
     130         -1.126970        1.000000        0.00084900        0.00066027
     131         -1.125100        1.000000        0.00277818        0.00197883
     132         -1.124640        1.000000        0.00142990        0.00126610
     133         -1.122028        1.000000        0.00217713        0.00217848
     134         -1.120887        1.000000        0.00728832        0.00553794
     135         -1.119308        1.000000        0.00210797        0.00193626
     136         -1.118408        1.000000        0.01549763        0.01112679
     137         -1.117769        1.000000        0.00946524        0.00890812
     138         -1.116570        1.000000        0.00061705        0.00061175
     139         -1.115096        1.000000        0.01341868        0.00948547
     140         -1.114402        1.000000        0.00974617        0.00667594
     141         -1.114039        1.000000        0.00266582        0.00216407
     142         -1.112381        1.000000        0.00485316        0.00412831
     143         -1.111588        1.000000        0.01479484        0.01217896
     144         -1.111356        1.000000        0.00316426        0.00221599
     145         -1.110913        1.000000        0.00838589        0.00558565
     146         -1.109631        1.000000        0.00386350        0.00248820
     147         -1.107338        1.000000        0.00742123        0.00614262
     148         -1.107163        1.000000        0.01184296        0.00930172
     149         -1.106911        1.000000        0.00903198        0.00639116
     150         -1.105904        1.000000        0.01883454        0.01327652
     151         -1.104513        1.000000        0.00735666        0.00492234
     152         -1.103753        1.000000        0.00300413        0.00237445
     153         -1.103233        1.000000        0.00279222        0.00175741
     154         -1.101116        1.000000        0.00678227        0.00382274
     155         -1.099878        1.000000        0.00411127        0.00367540
     156         -1.099527        1.000000        0.00567082        0.00327268
     157         -1.099360        1.000000        0.00667193        0.00353246
     158         -1.097449        1.000000        0.01801770        0.01076615
     159         -1.097246        1.000000        0.00925221        0.00682847
     160         -1.096336        1.000000        0.01524333        0.00951752
     161         -1.095776        1.000000        0.02873084        0.01801438
     162         -1.094258        1.000000        0.01079149        0.00733906
     163         -1.093701        1.000000        0.01068244        0.00583826
     164         -1.093107        1.000000        0.01063522        0.00735128
     165         -1.091600        1.000000        0.02419568        0.01695169
     166         -1.090890        1.000000        0.00988456        0.00574215
     167         -1.090283        1.000000        0.02941829        0.01629337
     168         -1.089378        1.000000        0.01394807        0.00740330
     169         -1.088506        1.000000        0.00974333        0.00619781
     170         -1.086931        1.000000        0.01512958        0.00736876
     171         -1.086367        1.000000        0.01036057        0.00511048
     172         -1.085327        1.000000        0.00928923        0.00470927
     173         -1.084766        1.000000        0.03770638        0.01838274
     174         -1.083961        1.000000        0.05147351        0.02200980
     175         -1.082920        1.000000        0.01329569        0.00765343
     176         -1.081700        1.000000        0.02303476        0.01097006
     177         -1.081031        1.000000        0.00608753        0.00447243
     178         -1.080558        1.000000        0.01208926        0.00635580
     179         -1.080415        1.000000        0.01963683        0.00841854
     180         -1.080047        1.000000        0.01261306        0.00469533
     181         -1.077309        1.000000        0.01297335        0.00581289
     182         -1.076601        1.000000        0.02153953        0.00737492
     183         -1.076342        1.000000        0.03109147        0.01399546
     184         -1.076154        1.000000        0.00812709        0.00330195
     185         -1.075469        1.000000        0.02342458        0.00828419
     186         -1.074904        1.000000        0.04518967        0.01723335
     187         -1.074160        1.000000        0.02197262        0.00859055
     188         -1.073364        1.000000        0.02548327        0.01226692
     189         -1.071841        1.000000        0.02565170        0.01569876
     190         -1.071436        1.000000        0.02022555        0.01115514
     191         -1.070358        1.000000        0.01869780        0.00973893
     192         -1.070160        1.000000        0.01134956        0.00532528
     193         -1.069551        1.000000        0.00415513        0.00174133
     194         -1.069042        1.000000        0.02107425        0.00933210
     195         -1.068018        1.000000        0.00207007        0.00135618
     196         -1.067683        1.000000        0.01242091        0.00615196
     197         -1.067094        1.000000        0.03156372        0.01534464
     198         -1.066200        1.000000        0.02142638        0.01020782
     199         -1.065105        1.000000        0.00483298        0.00231044
     200         -1.064600        1.000000        0.00470414        0.00243372
     201         -1.063825        1.000000        0.00672483        0.00405521
     202         -1.063672        1.000000        0.00882134        0.00478691
     203         -1.062915        1.000000        0.00356514        0.00163732
     204         -1.062259        1.000000        0.00700618        0.00416197
     205         -1.061986        1.000000        0.00503206        0.00271875
     206         -1.060822        1.000000        0.00324174        0.00157747
     207         -1.060230        1.000000        0.00136995        0.00065027
     208         -1.059971        1.000000        0.00256051        0.00116238
     209         -1.059399        1.000000        0.00560318        0.00259212
     210         -1.058798        1.000000        0.00867543        0.00370037
     211         -1.058498        1.000000        0.01876586        0.00799846
     212         -1.057049        1.000000        0.00185017        0.00071547
     213         -1.056896        1.000000        0.00611394        0.00237417
     214         -1.056403        1.000000        0.00397907        0.00166116
     215         -1.056079        1.000000        0.01886853        0.00838920
     216         -1.055624        1.000000        0.00424470        0.00200662
     217         -1.055288        1.000000        0.01786137        0.00710407
     218         -1.054828        1.000000        0.01821946        0.00692932
     219         -1.054413        1.000000        0.00417756        0.00156555
     220         -1.053990        1.000000        0.01419651        0.00579382
     221         -1.053598        1.000000        0.02790733        0.01053246
     222         -1.053387        1.000000        0.01118531        0.00517970
     223         -1.052953        1.000000        0.01201663        0.00526355
     224         -1.052779        1.000000        0.00861851        0.00360202
     225         -1.052376        1.000000        0.01854290        0.00907801
     226         -1.052297        1.000000        0.02395098        0.01217770
     227         -1.051819        1.000000        0.01549495        0.00642185
     228         -1.051536        1.000000        0.00218429        0.00092467
     229         -1.051232        1.000000        0.00507011        0.00226800
     230         -1.050581        1.000000        0.01025869        0.00500535
     231         -1.050140        1.000000        0.00472851        0.00201653
     232         -1.049834        1.000000        0.02035373        0.01080738
     233         -1.049588        1.000000        0.05057820        0.02159910
     234         -1.049506        1.000000        0.05016103        0.02198305
     235         -1.048565        1.000000        0.00961187        0.00445232
     236         -1.048103        1.000000        0.01954950        0.00886165
     237         -1.048023        1.000000        0.01543014        0.00671056
     238         -1.047651        1.000000        0.02091408        0.00869374
     239         -1.047305        1.000000        0.03743025        0.01597928
     240         -1.046707        1.000000        0.06148900        0.02542435
     241         -1.046592        1.000000        0.03725172        0.01554774
     242         -1.046281        1.000000        0.07330999        0.02992735
     243         -1.045974        1.000000        0.00136543        0.00056670
     244         -1.045866        1.000000        0.01351984        0.00561321
     245         -1.045771        1.000000        0.01959866        0.00901073
     246         -1.045301        1.000000        0.00777082        0.00294331
     247         -1.045020        1.000000        0.00800355        0.00316346
     248         -1.043956        1.000000        0.01088047        0.00413145
     249         -1.043818        1.000000        0.01231897        0.00469389
     250         -1.043244        1.000000        0.00891521        0.00349151
     251         -1.043119        1.000000        0.03779922        0.01425962
     252         -1.042993        1.000000        0.01875901        0.00742165
     253         -1.042515        1.000000        0.00219026        0.00088984
     254         -1.041302        1.000000        0.02748851        0.01177754
     255         -1.041116        1.000000        0.00252166        0.00105819
     256         -1.040594        1.000000        0.00082971        0.00036730
     257         -1.040094        1.000000        0.00202039        0.00076866
     258         -1.039599        1.000000        0.00080404        0.00036068
     259         -1.039408        1.000000        0.00139301        0.00072676
     260         -1.038970        1.000000        0.00209403        0.00093203
     261         -1.038561        1.000000        0.00580045        0.00231436
     262         -1.038022        1.000000        0.08716268        0.04871293
     263         -1.037841        1.000000        0.00027972        0.00014798
     264         -1.036991        1.000000        0.02193114        0.01319536
     265         -1.036854        1.000000        0.00672258        0.00394873
     266         -1.035910        1.000000        0.00979570        0.00540038
     267         -1.035115        1.000000        0.00094998        0.00051055
     268         -1.034275        1.000000        0.00134273        0.00059915
     269         -1.033697        1.000000        0.00284023        0.00100360
     270         -1.033444        1.000000        0.00485191        0.00245517
     271         -1.033385        1.000000        0.00441444        0.00221216
     272         -1.033262        1.000000        0.00571574        0.00267834
     273         -1.032346        1.000000        0.00015886        0.00007456
     274         -1.031626        1.000000        0.01369677        0.00538754
     275         -1.030746        1.000000        0.00387085        0.00165650
     276         -1.029780        1.000000        0.00450944        0.00170767
     277         -1.028980        1.000000        0.00465598        0.00178053
     278         -1.027492        1.000000        0.00000391        0.00000162
     279         -1.025795        1.000000        0.00000138        0.00000107
     280         -1.023990        1.000000        0.00000821        0.00000570
     281         -1.022755        1.000000        0.00349964        0.00227744
     282         -1.019871        1.000000        0.00124449        0.00057871
     283         -1.017737        1.000000        0.00000117        0.00000064
     284         -1.012409        1.000000        0.00002224        0.00000878
     285         -1.010522        1.000000        0.14200191        0.07423091
     286         -0.880961        1.000000        0.00000000        0.00000000
     287         -0.861761        1.000000        0.00000000        0.00000000
     288         -0.860652        1.000000        0.00000000        0.00000000
     289         -0.854811        1.000000        0.00000000        0.00000000
     290         -0.853189        1.000000        0.00000000        0.00000000
     291         -0.838407        1.000000        0.00000000        0.00000000
     292         -0.837131        1.000000        0.00000000        0.00000000
     293         -0.835422        1.000000        0.00000000        0.00000000
     294         -0.832873        1.000000        0.00000000        0.00000000
     295         -0.813092        1.000000        0.00000000        0.00000000
     296         -0.811309        1.000000        0.00000000        0.00000000
     297         -0.805633        1.000000        0.00000000        0.00000000
     298         -0.800994        1.000000        0.00000000        0.00000000
     299         -0.798544        1.000000        0.00000000        0.00000000
     300         -0.797176        1.000000        0.00000000        0.00000000
     301         -0.796065        1.000000        0.00000000        0.00000000
     302         -0.795247        1.000000        0.00000000        0.00000000
     303         -0.794465        1.000000        0.00000000        0.00000000
     304         -0.792558        1.000000        0.00000000        0.00000000
     305         -0.791532        1.000000        0.00000000        0.00000000
     306         -0.790931        1.000000        0.00000000        0.00000000
     307         -0.790366        1.000000        0.00000000        0.00000000
     308         -0.787916        1.000000        0.00000000        0.00000000
     309         -0.786681        1.000000        0.00000000        0.00000000
     310         -0.785900        1.000000        0.00000000        0.00000000
     311         -0.785502        1.000000        0.00000000        0.00000000
     312         -0.784837        1.000000        0.00000000        0.00000000
     313         -0.783950        1.000000        0.00000000        0.00000000
     314         -0.783030        1.000000        0.00000000        0.00000000
     315         -0.781274        1.000000        0.00000000        0.00000000
     316         -0.780386        1.000000        0.00000000        0.00000000
     317         -0.779166        1.000000        0.00000000        0.00000000
     318         -0.778511        1.000000        0.00000000        0.00000000
     319         -0.774158        1.000000        0.00000000        0.00000000
     320         -0.771889        1.000000        0.00000000        0.00000000
     321         -0.771572        1.000000        0.00000000        0.00000000
     322         -0.771179        1.000000        0.00000000        0.00000000
     323         -0.768785        1.000000        0.00000000        0.00000000
     324         -0.767359        1.000000        0.00000000        0.00000000
     325         -0.766584        1.000000        0.00000000        0.00000000
     326         -0.766329        1.000000        0.00000000        0.00000000
     327         -0.765063        1.000000        0.00000000        0.00000000
     328         -0.764345        1.000000        0.00000000        0.00000000
     329         -0.763991        1.000000        0.00000000        0.00000000
     330         -0.763040        1.000000        0.00000000        0.00000000
     331         -0.762394        1.000000        0.00000000        0.00000000
     332         -0.761901        1.000000        0.00000000        0.00000000
     333         -0.761725        1.000000        0.00000000        0.00000000
     334         -0.760117        1.000000        0.00000000        0.00000000
     335         -0.759732        1.000000        0.00000000        0.00000000
     336         -0.759057        1.000000        0.00000000        0.00000000
     337         -0.757838        1.000000        0.00000000        0.00000000
     338         -0.754831        1.000000        0.00000000        0.00000000
     339         -0.753708        1.000000        0.00000000        0.00000000
     340         -0.753375        1.000000        0.00000000        0.00000000
     341         -0.751671        1.000000        0.00000000        0.00000000
     342         -0.750037        1.000000        0.00000000        0.00000000
     343         -0.749186        1.000000        0.00000000        0.00000000
     344         -0.748889        1.000000        0.00000000        0.00000000
     345         -0.746995        1.000000        0.00000000        0.00000000
     346         -0.718177        1.000000        0.00136953        0.00018595
     347         -0.705802        1.000000        0.00110682        0.00012936
     348         -0.703896        1.000000        0.00294315        0.00035743
     349         -0.699323        1.000000        0.00365235        0.00048291
     350         -0.697252        1.000000        0.00218231        0.00026824
     351         -0.695572        1.000000        0.00235201        0.00028090
     352         -0.690990        1.000000        0.00262870        0.00034613
     353         -0.687608        1.000000        0.00063432        0.00009233
     354         -0.686710        1.000000        0.00260667        0.00037465
     355         -0.685600        1.000000        0.00277081        0.00046827
     356         -0.681933        1.000000        0.00234384        0.00027818
     357         -0.681818        1.000000        0.00322691        0.00030755
     358         -0.680598        1.000000        0.00358645        0.00051667
     359         -0.677631        1.000000        0.00680705        0.00083741
     360         -0.676231        1.000000        0.00354726        0.00044607
     361         -0.675184        1.000000        0.00638999        0.00063705
     362         -0.673914        1.000000        0.00309481        0.00041412
     363         -0.670819        1.000000        0.00299018        0.00040233
     364         -0.668535        1.000000        0.00803503        0.00081143
     365         -0.666745        1.000000        0.00455961        0.00066530
     366         -0.665099        1.000000        0.00539088        0.00051855
     367         -0.664004        1.000000        0.00446403        0.00050871
     368         -0.662322        1.000000        0.00287307        0.00031494
     369         -0.662102        1.000000        0.00599498        0.00099428
     370         -0.660198        1.000000        0.00832528        0.00069745
     371         -0.658748        1.000000        0.00311103        0.00037552
     372         -0.658127        1.000000        0.00303244        0.00041566
     373         -0.656827        1.000000        0.00488131        0.00062740
     374         -0.654564        1.000000        0.00516786        0.00058305
     375         -0.653081        1.000000        0.00568359        0.00080227
     376         -0.649207        1.000000        0.00924643        0.00134166
     377         -0.648953        1.000000        0.00492767        0.00052888