# Projected DOS for list 203 of 1 atoms, at iteration step i = 0, E(Fermi) =    -0.237583 a.u.
#     MO Eigenvalue [a.u.]      Occupation                 s                 p                 d
       1         -3.115895        1.000000        0.00000000        0.00000000        0.00000000
       2         -3.112717        1.000000        0.00000000        0.00000000        0.00000000
       3         -3.112103        1.000000        0.00000000        0.00000000        0.00000000
       4         -3.111180        1.000000        0.00000000        0.00000000        0.00000000
       5         -3.110810        1.000000        0.00000000        0.00000000        0.00000000
       6         -3.110575        1.000000        0.00000000        0.00000000        0.00000000
       7         -3.110067        1.000000        0.00000000        0.00000000        0.00000000
       8         -3.109817        1.000000        0.00000000        0.00000000        0.00000000
       9         -3.109660        1.000000        0.00000000        0.00000000        0.00000000
      10         -3.108831        1.000000        0.00000000        0.00000000        0.00000000
      11         -3.108678        1.000000        0.00000000        0.00000000        0.00000000
      12         -3.108578        1.000000        0.00000000        0.00000000        0.00000000
      13         -3.108350        1.000000        0.00000000        0.00000000        0.00000000
      14         -3.108163        1.000000        0.00000000        0.00000000        0.00000000
      15         -3.107948        1.000000        0.00000000        0.00000000        0.00000000
      16         -3.107865        1.000000        0.00000000        0.00000000        0.00000000
      17         -3.107703        1.000000        0.00000000        0.00000000        0.00000000
      18         -3.107683        1.000000        0.00000000        0.00000000        0.00000000
      19         -3.107641        1.000000        0.00000000        0.00000000        0.00000000
      20         -3.107604        1.000000        0.00000000        0.00000000        0.00000000
      21         -3.107402        1.000000        0.00000000        0.00000000        0.00000000
      22         -3.107115        1.000000        0.00000000        0.00000000        0.00000000
      23         -3.107013        1.000000        0.00000000        0.00000000        0.00000000
      24         -3.106750        1.000000        0.00000000        0.00000000        0.00000000
      25         -3.106619        1.000000        0.00000000        0.00000000        0.00000000
      26         -3.106567        1.000000        0.00000000        0.00000000        0.00000000
      27         -3.106546        1.000000        0.00000000        0.00000000        0.00000000
      28         -3.106258        1.000000        0.00000000        0.00000000        0.00000000
      29         -3.106103        1.000000        0.00000000        0.00000000        0.00000000
      30         -3.104674        1.000000        0.00000000        0.00000000        0.00000000
      31         -1.775522        1.000000        0.00000000        0.00000000        0.00000000
      32         -1.773964        1.000000        0.00000000        0.00000000        0.00000000
      33         -1.773454        1.000000        0.00000000        0.00000000        0.00000000
      34         -1.773008        1.000000        0.00000000        0.00000000        0.00000000
      35         -1.772581        1.000000        0.00000000        0.00000000        0.00000000
      36         -1.772213        1.000000        0.00000000        0.00000000        0.00000000
      37         -1.771852        1.000000        0.00000000        0.00000000        0.00000000
      38         -1.771444        1.000000        0.00000000        0.00000000        0.00000000
      39         -1.771233        1.000000        0.00000000        0.00000000        0.00000000
      40         -1.770977        1.000000        0.00000000        0.00000000        0.00000000
      41         -1.770760        1.000000        0.00000000        0.00000000        0.00000000
      42         -1.770111        1.000000        0.00000000        0.00000000        0.00000000
      43         -1.770034        1.000000        0.00000000        0.00000000        0.00000000
      44         -1.769495        1.000000        0.00000000        0.00000000        0.00000000
      45         -1.769421        1.000000        0.00000000        0.00000000        0.00000000
      46         -1.769063        1.000000        0.00000000        0.00000000        0.00000000
      47         -1.768532        1.000000        0.00000000        0.00000000        0.00000000
      48         -1.768412        1.000000        0.00000000        0.00000000        0.00000000
      49         -1.767811        1.000000        0.00000000        0.00000000        0.00000000
      50         -1.767614        1.000000        0.00000000        0.00000000        0.00000000
      51         -1.767477        1.000000        0.00000000        0.00000000        0.00000000
      52         -1.765531        1.000000        0.00000000        0.00000000        0.00000000
      53         -1.765088        1.000000        0.00000000        0.00000000        0.00000000
      54         -1.764557        1.000000        0.00000000        0.00000000        0.00000000
      55         -1.763772        1.000000        0.00000000        0.00000000        0.00000000
      56         -1.763328        1.000000        0.00000000        0.00000000        0.00000000
      57         -1.762925        1.000000        0.00000000        0.00000000        0.00000000
      58         -1.762506        1.000000        0.00000000        0.00000000        0.00000000
      59         -1.762119        1.000000        0.00000000        0.00000000        0.00000000
      60         -1.762053        1.000000        0.00000000        0.00000000        0.00000000
      61         -1.761895        1.000000        0.00000000        0.00000000        0.00000000
      62         -1.761602        1.000000        0.00000000        0.00000000        0.00000000
      63         -1.761509        1.000000        0.00000000        0.00000000        0.00000000
      64         -1.761377        1.000000        0.00000000        0.00000000        0.00000000
      65         -1.761171        1.000000        0.00000000        0.00000000        0.00000000
      66         -1.760998        1.000000        0.00000000        0.00000000        0.00000000
      67         -1.760877        1.000000        0.00000000        0.00000000        0.00000000
      68         -1.760806        1.000000        0.00000000        0.00000000        0.00000000
      69         -1.760684        1.000000        0.00000000        0.00000000        0.00000000
      70         -1.760645        1.000000        0.00000000        0.00000000        0.00000000
      71         -1.760442        1.000000        0.00000000        0.00000000        0.00000000
      72         -1.760098        1.000000        0.00000000        0.00000000        0.00000000
      73         -1.759962        1.000000        0.00000000        0.00000000        0.00000000
      74         -1.759824        1.000000        0.00000000        0.00000000        0.00000000
      75         -1.759787        1.000000        0.00000000        0.00000000        0.00000000
      76         -1.759638        1.000000        0.00000000        0.00000000        0.00000000
      77         -1.759601        1.000000        0.00000000        0.00000000        0.00000000
      78         -1.759512        1.000000        0.00000000        0.00000000        0.00000000
      79         -1.759406        1.000000        0.00000000        0.00000000        0.00000000
      80         -1.759287        1.000000        0.00000000        0.00000000        0.00000000
      81         -1.759176        1.000000        0.00000000        0.00000000        0.00000000
      82         -1.758872        1.000000        0.00000000        0.00000000        0.00000000
      83         -1.758781        1.000000        0.00000000        0.00000000        0.00000000
      84         -1.758726        1.000000        0.00000000        0.00000000        0.00000000
      85         -1.758559        1.000000        0.00000000        0.00000000        0.00000000
      86         -1.758378        1.000000        0.00000000        0.00000000        0.00000000
      87         -1.758294        1.000000        0.00000000        0.00000000        0.00000000
      88         -1.758087        1.000000        0.00000000        0.00000000        0.00000000
      89         -1.757987        1.000000        0.00000000        0.00000000        0.00000000
      90         -1.757734        1.000000        0.00000000        0.00000000        0.00000000
      91         -1.757649        1.000000        0.00000000        0.00000000        0.00000000
      92         -1.757529        1.000000        0.00000000        0.00000000        0.00000000
      93         -1.757404        1.000000        0.00000000        0.00000000        0.00000000
      94         -1.757324        1.000000        0.00000000        0.00000000        0.00000000
      95         -1.757187        1.000000        0.00000000        0.00000000        0.00000000
      96         -1.757137        1.000000        0.00000000        0.00000000        0.00000000
      97         -1.756770        1.000000        0.00000000        0.00000000        0.00000000
      98         -1.756598        1.000000        0.00000000        0.00000000        0.00000000
      99         -1.756513        1.000000        0.00000000        0.00000000        0.00000000
     100         -1.756186        1.000000        0.00000000        0.00000000        0.00000000
     101         -1.755847        1.000000        0.00000000        0.00000000        0.00000000
     102         -1.755716        1.000000        0.00000000        0.00000000        0.00000000
     103         -1.755306        1.000000        0.00000000        0.00000000        0.00000000
     104         -1.755052        1.000000        0.00000000        0.00000000        0.00000000
     105         -1.754765        1.000000        0.00000000        0.00000000        0.00000000
     106         -1.754094        1.000000        0.00000000        0.00000000        0.00000000
     107         -1.753681        1.000000        0.00000000        0.00000000        0.00000000
     108         -1.753548        1.000000        0.00000000        0.00000000        0.00000000
     109         -1.753256        1.000000        0.00000000        0.00000000        0.00000000
     110         -1.752675        1.000000        0.00000000        0.00000000        0.00000000
     111         -1.752502        1.000000        0.00000000        0.00000000        0.00000000
     112         -1.752253        1.000000        0.00000000        0.00000000        0.00000000
     113         -1.751643        1.000000        0.00000000        0.00000000        0.00000000
     114         -1.751317        1.000000        0.00000000        0.00000000        0.00000000
     115         -1.749193        1.000000        0.00000000        0.00000000        0.00000000
     116         -1.748137        1.000000        0.00000000        0.00000000        0.00000000
     117         -1.747283        1.000000        0.00000000        0.00000000        0.00000000
     118         -1.745962        1.000000        0.00000000        0.00000000        0.00000000
     119         -1.745880        1.000000        0.00000000        0.00000000        0.00000000
     120         -1.744143        1.000000        0.00000000        0.00000000        0.00000000
     121         -1.145318        1.000000        0.00186028        0.00028387        0.00003844
     122         -1.141162        1.000000        0.00125305        0.00018726        0.00002480
     123         -1.135518        1.000000        0.00052841        0.00012545        0.00001409
     124         -1.134356        1.000000        0.00083074        0.00008249        0.00001439
     125         -1.132797        1.000000        0.00462315        0.00042259        0.00007293
     126         -1.131675        1.000000        0.00055791        0.00004114        0.00001013
     127         -1.130657        1.000000        0.03532117        0.00372826        0.00055294
     128         -1.129329        1.000000        0.00433035        0.00054310        0.00007445
     129         -1.127805        1.000000        0.00237076        0.00018206        0.00003072
     130         -1.126970        1.000000        0.00026121        0.00002934        0.00000507
     131         -1.125100        1.000000        0.00130280        0.00007579        0.00001264
     132         -1.124640        1.000000        0.00232830        0.00020282        0.00004633
     133         -1.122028        1.000000        0.00041512        0.00002449        0.00000381
     134         -1.120887        1.000000        0.00004742        0.00003106        0.00000139
     135         -1.119308        1.000000        0.00039115        0.00005985        0.00001101
     136         -1.118408        1.000000        0.00018157        0.00010631        0.00001389
     137         -1.117769        1.000000        0.00209997        0.00008587        0.00003161
     138         -1.116570        1.000000        0.00043534        0.00002977        0.00000638
     139         -1.115096        1.000000        0.00457950        0.00021814        0.00005195
     140         -1.114402        1.000000        0.00118338        0.00015713        0.00001718
     141         -1.114039        1.000000        0.00864840        0.00037755        0.00010856
     142         -1.112381        1.000000        0.00135736        0.00010337        0.00001030
     143         -1.111588        1.000000        0.00070612        0.00028941        0.00001362
     144         -1.111356        1.000000        0.00404908        0.00030810        0.00005202
     145         -1.110913        1.000000        0.00008773        0.00011391        0.00001310
     146         -1.109631        1.000000        0.00010714        0.00005058        0.00000679
     147         -1.107338        1.000000        0.00303386        0.00017596        0.00006170
     148         -1.107163        1.000000        0.00252466        0.00018785        0.00006738
     149         -1.106911        1.000000        0.00447870        0.00051725        0.00005937
     150         -1.105904        1.000000        0.00263401        0.00012755        0.00006664
     151         -1.104513        1.000000        0.03132599        0.00186835        0.00027567
     152         -1.103753        1.000000        0.01355243        0.00071257        0.00011837
     153         -1.103233        1.000000        0.00862004        0.00023903        0.00009180
     154         -1.101116        1.000000        0.00079934        0.00002237        0.00001067
     155         -1.099878        1.000000        0.00036781        0.00014030        0.00000772
     156         -1.099527        1.000000        0.00388757        0.00069627        0.00006743
     157         -1.099360        1.000000        0.00167880        0.00006918        0.00003874
     158         -1.097449        1.000000        0.00148565        0.00063187        0.00006719
     159         -1.097246        1.000000        0.00030083        0.00000726        0.00000990
     160         -1.096336        1.000000        0.00115876        0.00034314        0.00001613
     161         -1.095776        1.000000        0.00468248        0.00060206        0.00001356
     162         -1.094258        1.000000        0.00001947        0.00004165        0.00000325
     163         -1.093701        1.000000        0.00063349        0.00007278        0.00001651
     164         -1.093107        1.000000        0.00903179        0.00027026        0.00007031
     165         -1.091600        1.000000        0.01036228        0.00021509        0.00008863
     166         -1.090890        1.000000        0.00691607        0.00018109        0.00004191
     167         -1.090283        1.000000        0.00888742        0.00065662        0.00012213
     168         -1.089378        1.000000        0.00006562        0.00049674        0.00001481
     169         -1.088506        1.000000        0.00010554        0.00010477        0.00001315
     170         -1.086931        1.000000        0.00004218        0.00001563        0.00001063
     171         -1.086367        1.000000        0.00001691        0.00005027        0.00002128
     172         -1.085327        1.000000        0.00235088        0.00044947        0.00006183
     173         -1.084766        1.000000        0.00442901        0.00009052        0.00004045
     174         -1.083961        1.000000        0.00001574        0.00015470        0.00002786
     175         -1.082920        1.000000        0.01475280        0.00046608        0.00012208
     176         -1.081700        1.000000        0.00791717        0.00137606        0.00006350
     177         -1.081031        1.000000        0.00504631        0.00057903        0.00004244
     178         -1.080558        1.000000        0.03547848        0.00101864        0.00019572
     179         -1.080415        1.000000        0.00314680        0.00032649        0.00009851
     180         -1.080047        1.000000        0.00047407        0.00006743        0.00000657
     181         -1.077309        1.000000        0.00579918        0.00068731        0.00003756
     182         -1.076601        1.000000        0.00267454        0.00013688        0.00001226
     183         -1.076342        1.000000        0.01497810        0.00083181        0.00002598
     184         -1.076154        1.000000        0.00272768        0.00004365        0.00003921
     185         -1.075469        1.000000        0.00926833        0.00034833        0.00001722
     186         -1.074904        1.000000        0.00246080        0.00054002        0.00010519
     187         -1.074160        1.000000        0.00158600        0.00003638        0.00000483
     188         -1.073364        1.000000        0.00000060        0.00021049        0.00008618
     189         -1.071841        1.000000        0.00213111        0.00023321        0.00003349
     190         -1.071436        1.000000        0.00320995        0.00004917        0.00005150
     191         -1.070358        1.000000        0.00022441        0.00002384        0.00001663
     192         -1.070160        1.000000        0.00000094        0.00000351        0.00000397
     193         -1.069551        1.000000        0.00205277        0.00004051        0.00000587
     194         -1.069042        1.000000        0.00129620        0.00012951        0.00001407
     195         -1.068018        1.000000        0.00363706        0.00009766        0.00001297
     196         -1.067683        1.000000        0.00682802        0.00014306        0.00002527
     197         -1.067094        1.000000        0.00173276        0.00004456        0.00001957
     198         -1.066200        1.000000        0.01341784        0.00024698        0.00004886
     199         -1.065105        1.000000        0.00053180        0.00005947        0.00001071
     200         -1.064600        1.000000        0.00058477        0.00001089        0.00000399
     201         -1.063825        1.000000        0.00005129        0.00003125        0.00000195
     202         -1.063672        1.000000        0.00001733        0.00000563        0.00000098
     203         -1.062915        1.000000        0.00063081        0.00001090        0.00000327
     204         -1.062259        1.000000        0.00082925        0.00004878        0.00002065
     205         -1.061986        1.000000        0.00010795        0.00000380        0.00000064
     206         -1.060822        1.000000        0.00000613        0.00000668        0.00000286
     207         -1.060230        1.000000        0.00010217        0.00000832        0.00000133
     208         -1.059971        1.000000        0.00030153        0.00002604        0.00000254
     209         -1.059399        1.000000        0.00040564        0.00003460        0.00000541
     210         -1.058798        1.000000        0.00050837        0.00019500        0.00002993
     211         -1.058498        1.000000        0.00860134        0.00038755        0.00003466
     212         -1.057049        1.000000        0.00167594        0.00010704        0.00000524
     213         -1.056896        1.000000        0.00595702        0.00018896        0.00000639
     214         -1.056403        1.000000        0.00434802        0.00022033        0.00000967
     215         -1.056079        1.000000        0.01320291        0.00033792        0.00000977
     216         -1.055624        1.000000        0.00043886        0.00003181        0.00000323
     217         -1.055288        1.000000        0.01762227        0.00108293        0.00006452
     218         -1.054828        1.000000        0.00838472        0.00023190        0.00000862
     219         -1.054413        1.000000        0.00018661        0.00004042        0.00001431
     220         -1.053990        1.000000        0.00405994        0.00007611        0.00000591
     221         -1.053598        1.000000        0.00056424        0.00000944        0.00000040
     222         -1.053387        1.000000        0.00011528        0.00003583        0.00000814
     223         -1.052953        1.000000        0.00220495        0.00004349        0.00000152
     224         -1.052779        1.000000        0.00000152        0.00006598        0.00000728
     225         -1.052376        1.000000        0.00008245        0.00000278        0.00000248
     226         -1.052297        1.000000        0.00313683        0.00006840        0.00000254
     227         -1.051819        1.000000        0.00113592        0.00002424        0.00000585
     228         -1.051536        1.000000        0.00019969        0.00000467        0.00000251
     229         -1.051232        1.000000        0.00000309        0.00004967        0.00000556
     230         -1.050581        1.000000        0.00063230        0.00026063        0.00004634
     231         -1.050140        1.000000        0.00165862        0.00009987        0.00000946
     232         -1.049834        1.000000        0.00036517        0.00010503        0.00000508
     233         -1.049588        1.000000        0.00085483        0.00012481        0.00001628
     234         -1.049506        1.000000        0.01408499        0.00087190        0.00005933
     235         -1.048565        1.000000        0.00461861        0.00011426        0.00000308
     236         -1.048103        1.000000        0.01011047        0.00021947        0.00000862
     237         -1.048023        1.000000        0.00692080        0.00026541        0.00003405
     238         -1.047651        1.000000        0.00259910        0.00009443        0.00002390
     239         -1.047305        1.000000        0.00052584        0.00002048        0.00000355
     240         -1.046707        1.000000        0.00335255        0.00007223        0.00000379
     241         -1.046592        1.000000        0.00207093        0.00003981        0.00000423
     242         -1.046281        1.000000        0.00032791        0.00004003        0.00001119
     243         -1.045974        1.000000        0.00000301        0.00000307        0.00000117
     244         -1.045866        1.000000        0.00227138        0.00042492        0.00002534
     245         -1.045771        1.000000        0.00209377        0.00013159        0.00000915
     246         -1.045301        1.000000        0.00021199        0.00000506        0.00000280
     247         -1.045020        1.000000        0.00014225        0.00010437        0.00001323
     248         -1.043956        1.000000        0.00896500        0.00017765        0.00004366
     249         -1.043818        1.000000        0.00796511        0.00019495        0.00005003
     250         -1.043244        1.000000        0.01217658        0.00023993        0.00005619
     251         -1.043119        1.000000        0.00005988        0.00000748        0.00000973
     252         -1.042993        1.000000        0.00274028        0.00005972        0.00000452
     253         -1.042515        1.000000        0.00123955        0.00002247        0.00000520
     254         -1.041302        1.000000        0.00005173        0.00000530        0.00000077
     255         -1.041116        1.000000        0.01514003        0.00034413        0.00010372
     256         -1.040594        1.000000        0.00045274        0.00000946        0.00000838
     257         -1.040094        1.000000        0.00303286        0.00008425        0.00009984
     258         -1.039599        1.000000        0.00060041        0.00009554        0.00002742
     259         -1.039408        1.000000        0.00007061        0.00003026        0.00004692
     260         -1.038970        1.000000        0.00502417        0.00017550        0.00015739
     261         -1.038561        1.000000        0.01034786        0.00022535        0.00008416
     262         -1.038022        1.000000        0.00000456        0.00003898        0.00005488
     263         -1.037841        1.000000        0.00000144        0.00000044        0.00000048
     264         -1.036991        1.000000        0.00003307        0.00013183        0.00009269
     265         -1.036854        1.000000        0.00000112        0.00004349        0.00003060
     266         -1.035910        1.000000        0.00002163        0.00000251        0.00001062
     267         -1.035115        1.000000        0.00007514        0.00007464        0.00008086
     268         -1.034275        1.000000        0.00016183        0.00001153        0.00001628
     269         -1.033697        1.000000        0.00002806        0.00014202        0.00006526
     270         -1.033444        1.000000        0.00040719        0.00000764        0.00000994
     271         -1.033385        1.000000        0.00044906        0.00000940        0.00000754
     272         -1.033262        1.000000        0.00034560        0.00002178        0.00002991
     273         -1.032346        1.000000        0.00000522        0.00000094        0.00000128
     274         -1.031626        1.000000        0.00000717        0.00026152        0.00025557
     275         -1.030746        1.000000        0.00039155        0.00002456        0.00000897
     276         -1.029780        1.000000        0.00014839        0.00000516        0.00000190
     277         -1.028980        1.000000        0.00006714        0.00001336        0.00000635
     278         -1.027492        1.000000        0.00000001        0.00000007        0.00000007
     279         -1.025795        1.000000        0.00000003        0.00000000        0.00000001
     280         -1.023990        1.000000        0.00000000        0.00000000        0.00000001
     281         -1.022755        1.000000        0.00000047        0.00000078        0.00000089
     282         -1.019871        1.000000        0.00406748        0.00070955        0.00049215
     283         -1.017737        1.000000        0.00000037        0.00000006        0.00000003
     284         -1.012409        1.000000        0.00000003        0.00000080        0.00000021
     285         -1.010522        1.000000        0.00008522        0.00001378        0.00000975
     286         -0.880961        1.000000        0.00000000        0.00000000        0.00000000
     287         -0.861761        1.000000        0.00000000        0.00000000        0.00000000
     288         -0.860652        1.000000        0.00000000        0.00000000        0.00000000
     289         -0.854811        1.000000        0.00000000        0.00000000        0.00000000
     290         -0.853189        1.000000        0.00000000        0.00000000        0.00000000
     291         -0.838407        1.000000        0.00000000        0.00000000        0.00000000
     292         -0.837131        1.000000        0.00000000        0.00000000        0.00000000
     293         -0.835422        1.000000        0.00000000        0.00000000        0.00000000
     294         -0.832873        1.000000        0.00000000        0.00000000        0.00000000
     295         -0.813092        1.000000        0.00000000        0.00000000        0.00000000
     296         -0.811309        1.000000        0.00000000        0.00000000        0.00000000
     297         -0.805633        1.000000        0.00000000        0.00000000        0.00000000
     298         -0.800994        1.000000        0.00000000        0.00000000        0.00000000
     299         -0.798544        1.000000        0.00000000        0.00000000        0.00000000
     300         -0.797176        1.000000        0.00000000        0.00000000        0.00000000
     301         -0.796065        1.000000        0.00000000        0.00000000        0.00000000
     302         -0.795247        1.000000        0.00000000        0.00000000        0.00000000
     303         -0.794465        1.000000        0.00000000        0.00000000        0.00000000
     304         -0.792558        1.000000        0.00000000        0.00000000        0.00000000
     305         -0.791532        1.000000        0.00000000        0.00000000        0.00000000
     306         -0.790931        1.000000        0.00000000        0.00000000        0.00000000
     307         -0.790366        1.000000        0.00000000        0.00000000        0.00000000