# Projected DOS for atomic kind O at iteration step i = 0, E(Fermi) =    -0.237583 a.u.
#     MO Eigenvalue [a.u.]      Occupation                 s                 p                 d
       1         -3.115895        1.000000        0.00000015        0.00000013        0.00000001
       2         -3.112717        1.000000        0.00000020        0.00000014        0.00000001
       3         -3.112103        1.000000        0.00000053        0.00000045        0.00000004
       4         -3.111180        1.000000        0.00000002        0.00000006        0.00000001
       5         -3.110810        1.000000        0.00000021        0.00000018        0.00000002
       6         -3.110575        1.000000        0.00000016        0.00000014        0.00000001
       7         -3.110067        1.000000        0.00000033        0.00000023        0.00000001
       8         -3.109817        1.000000        0.00000019        0.00000019        0.00000002
       9         -3.109660        1.000000        0.00000014        0.00000015        0.00000002
      10         -3.108831        1.000000        0.00000074        0.00000047        0.00000004
      11         -3.108678        1.000000        0.00000019        0.00000024        0.00000002
      12         -3.108578        1.000000        0.00000006        0.00000008        0.00000001
      13         -3.108350        1.000000        0.00000010        0.00000018        0.00000002
      14         -3.108163        1.000000        0.00000016        0.00000027        0.00000002
      15         -3.107948        1.000000        0.00000009        0.00000010        0.00000001
      16         -3.107865        1.000000        0.00000003        0.00000006        0.00000001
      17         -3.107703        1.000000        0.00000005        0.00000005        0.00000001
      18         -3.107683        1.000000        0.00000002        0.00000003        0.00000000
      19         -3.107641        1.000000        0.00000005        0.00000005        0.00000000
      20         -3.107604        1.000000        0.00000005        0.00000005        0.00000000
      21         -3.107402        1.000000        0.00000002        0.00000005        0.00000000
      22         -3.107115        1.000000        0.00000006        0.00000005        0.00000000
      23         -3.107013        1.000000        0.00000007        0.00000009        0.00000001
      24         -3.106750        1.000000        0.00000002        0.00000003        0.00000000
      25         -3.106619        1.000000        0.00000005        0.00000004        0.00000000
      26         -3.106567        1.000000        0.00000001        0.00000001        0.00000000
      27         -3.106546        1.000000        0.00000003        0.00000004        0.00000001
      28         -3.106258        1.000000        0.00000005        0.00000005        0.00000000
      29         -3.106103        1.000000        0.00000002        0.00000003        0.00000000
      30         -3.104674        1.000000        0.00000005        0.00000006        0.00000001
      31         -1.775522        1.000000        0.00000000        0.00000000        0.00000000
      32         -1.773964        1.000000        0.00000000        0.00000000        0.00000000
      33         -1.773454        1.000000        0.00000000        0.00000000        0.00000000
      34         -1.773008        1.000000        0.00000000        0.00000000        0.00000000
      35         -1.772581        1.000000        0.00000000        0.00000000        0.00000000
      36         -1.772213        1.000000        0.00000000        0.00000000        0.00000000
      37         -1.771852        1.000000        0.00000000        0.00000000        0.00000000
      38         -1.771444        1.000000        0.00000000        0.00000000        0.00000000
      39         -1.771233        1.000000        0.00000000        0.00000000        0.00000000
      40         -1.770977        1.000000        0.00000000        0.00000000        0.00000000
      41         -1.770760        1.000000        0.00000000        0.00000000        0.00000000
      42         -1.770111        1.000000        0.00000000        0.00000000        0.00000000
      43         -1.770034        1.000000        0.00000000        0.00000000        0.00000000
      44         -1.769495        1.000000        0.00000000        0.00000000        0.00000000
      45         -1.769421        1.000000        0.00000000        0.00000000        0.00000000
      46         -1.769063        1.000000        0.00000000        0.00000000        0.00000000
      47         -1.768532        1.000000        0.00000000        0.00000000        0.00000000
      48         -1.768412        1.000000        0.00000000        0.00000000        0.00000000
      49         -1.767811        1.000000        0.00000000        0.00000000        0.00000000
      50         -1.767614        1.000000        0.00000000        0.00000000        0.00000000
      51         -1.767477        1.000000        0.00000000        0.00000000        0.00000000
      52         -1.765531        1.000000        0.00000000        0.00000000        0.00000000
      53         -1.765088        1.000000        0.00000001        0.00000001        0.00000000
      54         -1.764557        1.000000        0.00000000        0.00000000        0.00000000
      55         -1.763772        1.000000        0.00000000        0.00000000        0.00000000
      56         -1.763328        1.000000        0.00000000        0.00000000        0.00000000
      57         -1.762925        1.000000        0.00000001        0.00000001        0.00000000
      58         -1.762506        1.000000        0.00000000        0.00000000        0.00000000
      59         -1.762119        1.000000        0.00000000        0.00000000        0.00000000
      60         -1.762053        1.000000        0.00000000        0.00000000        0.00000000
      61         -1.761895        1.000000        0.00000000        0.00000000        0.00000000
      62         -1.761602        1.000000        0.00000000        0.00000000        0.00000000
      63         -1.761509        1.000000        0.00000000        0.00000000        0.00000000
      64         -1.761377        1.000000        0.00000000        0.00000000        0.00000000
      65         -1.761171        1.000000        0.00000000        0.00000000        0.00000000
      66         -1.760998        1.000000        0.00000000        0.00000000        0.00000000
      67         -1.760877        1.000000        0.00000000        0.00000000        0.00000000
      68         -1.760806        1.000000        0.00000000        0.00000000        0.00000000
      69         -1.760684        1.000000        0.00000000        0.00000000        0.00000000
      70         -1.760645        1.000000        0.00000000        0.00000000        0.00000000
      71         -1.760442        1.000000        0.00000000        0.00000000        0.00000000
      72         -1.760098        1.000000        0.00000000        0.00000000        0.00000000
      73         -1.759962        1.000000        0.00000000        0.00000000        0.00000000
      74         -1.759824        1.000000        0.00000000        0.00000001        0.00000000
      75         -1.759787        1.000000        0.00000000        0.00000000        0.00000000
      76         -1.759638        1.000000        0.00000000        0.00000000        0.00000000
      77         -1.759601        1.000000        0.00000000        0.00000000        0.00000000
      78         -1.759512        1.000000        0.00000000        0.00000000        0.00000000
      79         -1.759406        1.000000        0.00000000        0.00000000        0.00000000
      80         -1.759287        1.000000        0.00000000        0.00000000        0.00000000
      81         -1.759176        1.000000        0.00000000        0.00000000        0.00000000
      82         -1.758872        1.000000        0.00000000        0.00000000        0.00000000
      83         -1.758781        1.000000        0.00000000        0.00000000        0.00000000
      84         -1.758726        1.000000        0.00000000        0.00000000        0.00000000
      85         -1.758559        1.000000        0.00000000        0.00000000        0.00000000
      86         -1.758378        1.000000        0.00000000        0.00000001        0.00000000
      87         -1.758294        1.000000        0.00000000        0.00000000        0.00000000
      88         -1.758087        1.000000        0.00000000        0.00000000        0.00000000
      89         -1.757987        1.000000        0.00000000        0.00000000        0.00000000
      90         -1.757734        1.000000        0.00000000        0.00000000        0.00000000
      91         -1.757649        1.000000        0.00000000        0.00000000        0.00000000
      92         -1.757529        1.000000        0.00000000        0.00000001        0.00000000
      93         -1.757404        1.000000        0.00000000        0.00000000        0.00000000
      94         -1.757324        1.000000        0.00000000        0.00000000        0.00000000
      95         -1.757187        1.000000        0.00000000        0.00000000        0.00000000
      96         -1.757137        1.000000        0.00000000        0.00000000        0.00000000
      97         -1.756770        1.000000        0.00000000        0.00000000        0.00000000
      98         -1.756598        1.000000        0.00000000        0.00000000        0.00000000
      99         -1.756513        1.000000        0.00000000        0.00000000        0.00000000
     100         -1.756186        1.000000        0.00000000        0.00000000        0.00000000
     101         -1.755847        1.000000        0.00000000        0.00000000        0.00000000
     102         -1.755716        1.000000        0.00000000        0.00000000        0.00000000
     103         -1.755306        1.000000        0.00000000        0.00000000        0.00000000
     104         -1.755052        1.000000        0.00000000        0.00000000        0.00000000
     105         -1.754765        1.000000        0.00000000        0.00000000        0.00000000
     106         -1.754094        1.000000        0.00000000        0.00000000        0.00000000
     107         -1.753681        1.000000        0.00000000        0.00000000        0.00000000
     108         -1.753548        1.000000        0.00000000        0.00000000        0.00000000
     109         -1.753256        1.000000        0.00000000        0.00000000        0.00000000
     110         -1.752675        1.000000        0.00000000        0.00000000        0.00000000
     111         -1.752502        1.000000        0.00000000        0.00000000        0.00000000
     112         -1.752253        1.000000        0.00000000        0.00000000        0.00000000
     113         -1.751643        1.000000        0.00000000        0.00000000        0.00000000
     114         -1.751317        1.000000        0.00000000        0.00000000        0.00000000
     115         -1.749193        1.000000        0.00000000        0.00000000        0.00000000
     116         -1.748137        1.000000        0.00000000        0.00000000        0.00000000
     117         -1.747283        1.000000        0.00000000        0.00000000        0.00000000
     118         -1.745962        1.000000        0.00000000        0.00000000        0.00000000
     119         -1.745880        1.000000        0.00000000        0.00000000        0.00000000
     120         -1.744143        1.000000        0.00000000        0.00000000        0.00000000
     121         -1.145318        1.000000        0.54638531        0.03835975        0.01231167
     122         -1.141162        1.000000        0.54215311        0.04350671        0.01152721
     123         -1.135518        1.000000        0.51576146        0.03385633        0.01152790
     124         -1.134356        1.000000        0.51592729        0.04011870        0.01074640
     125         -1.132797        1.000000        0.52120745        0.04373750        0.01070434
     126         -1.131675        1.000000        0.50928488        0.04348339        0.01067897
     127         -1.130657        1.000000        0.48344734        0.04439269        0.00876239
     128         -1.129329        1.000000        0.50272296        0.04417396        0.01061272
     129         -1.127805        1.000000        0.47398357        0.04447161        0.00981472
     130         -1.126970        1.000000        0.50312908        0.04438464        0.00965546
     131         -1.125100        1.000000        0.50453180        0.04644309        0.01018203
     132         -1.124640        1.000000        0.51372928        0.04754007        0.01007582
     133         -1.122028        1.000000        0.50756639        0.04768363        0.00988421
     134         -1.120887        1.000000        0.49415911        0.04339732        0.00998788
     135         -1.119308        1.000000        0.50206902        0.04253577        0.01033166
     136         -1.118408        1.000000        0.47749609        0.04224825        0.00954802
     137         -1.117769        1.000000        0.50131524        0.04638516        0.00951790
     138         -1.116570        1.000000        0.47413333        0.04535390        0.00863829
     139         -1.115096        1.000000        0.49660747        0.04260646        0.00979227
     140         -1.114402        1.000000        0.50128548        0.04680039        0.00941307
     141         -1.114039        1.000000        0.48190064        0.05017106        0.00837137
     142         -1.112381        1.000000        0.49053151        0.05067275        0.00865784
     143         -1.111588        1.000000        0.45872742        0.04238529        0.00867749
     144         -1.111356        1.000000        0.48415073        0.04621253        0.00868629
     145         -1.110913        1.000000        0.48481414        0.04958144        0.00859494
     146         -1.109631        1.000000        0.48994281        0.04907844        0.00877927
     147         -1.107338        1.000000        0.49041170        0.04955906        0.00815135
     148         -1.107163        1.000000        0.48913463        0.04900333        0.00871724
     149         -1.106911        1.000000        0.48458203        0.04749151        0.00870302
     150         -1.105904        1.000000        0.46540516        0.04658101        0.00834355
     151         -1.104513        1.000000        0.36239307        0.03822379        0.00616193
     152         -1.103753        1.000000        0.21951629        0.02203549        0.00352885
     153         -1.103233        1.000000        0.49293887        0.04908210        0.00813227
     154         -1.101116        1.000000        0.43316638        0.04503813        0.00712316
     155         -1.099878        1.000000        0.42159231        0.04251332        0.00685942
     156         -1.099527        1.000000        0.39341882        0.04144526        0.00594509
     157         -1.099360        1.000000        0.29931305        0.03084233        0.00474450
     158         -1.097449        1.000000        0.43678148        0.04490085        0.00603373
     159         -1.097246        1.000000        0.40482803        0.04085534        0.00622631
     160         -1.096336        1.000000        0.34538737        0.03322415        0.00518283
     161         -1.095776        1.000000        0.20508736        0.02315907        0.00342575
     162         -1.094258        1.000000        0.34749186        0.03920772        0.00526272
     163         -1.093701        1.000000        0.45969393        0.04311822        0.00579625
     164         -1.093107        1.000000        0.39086926        0.04169402        0.00554425
     165         -1.091600        1.000000        0.41949655        0.04209415        0.00570333
     166         -1.090890        1.000000        0.48201813        0.04797437        0.00616357
     167         -1.090283        1.000000        0.44324072        0.04513863        0.00613131
     168         -1.089378        1.000000        0.43021653        0.04459287        0.00571224
     169         -1.088506        1.000000        0.42611115        0.03913611        0.00520312
     170         -1.086931        1.000000        0.45124717        0.04324236        0.00584965
     171         -1.086367        1.000000        0.46553029        0.04297876        0.00542677
     172         -1.085327        1.000000        0.44900921        0.04307073        0.00558121
     173         -1.084766        1.000000        0.41342104        0.04314503        0.00506084
     174         -1.083961        1.000000        0.39091670        0.03870665        0.00528612
     175         -1.082920        1.000000        0.46787083        0.04112246        0.00560661
     176         -1.081700        1.000000        0.39653911        0.03925809        0.00527288
     177         -1.081031        1.000000        0.48108317        0.04089256        0.00537928
     178         -1.080558        1.000000        0.45985750        0.03603924        0.00511235
     179         -1.080415        1.000000        0.44211307        0.04078946        0.00481856
     180         -1.080047        1.000000        0.45709773        0.03732917        0.00497901
     181         -1.077309        1.000000        0.33184318        0.02882547        0.00375234
     182         -1.076601        1.000000        0.44332154        0.03509342        0.00478426
     183         -1.076342        1.000000        0.41660599        0.03389259        0.00466635
     184         -1.076154        1.000000        0.42187394        0.02367674        0.00448649
     185         -1.075469        1.000000        0.38704965        0.03186279        0.00456862
     186         -1.074904        1.000000        0.39227429        0.02968870        0.00439571
     187         -1.074160        1.000000        0.45427379        0.02974142        0.00446388
     188         -1.073364        1.000000        0.44250395        0.02638567        0.00474400
     189         -1.071841        1.000000        0.36595661        0.02537096        0.00403037
     190         -1.071436        1.000000        0.42828410        0.02879521        0.00425131
     191         -1.070358        1.000000        0.35349957        0.02112425        0.00398761
     192         -1.070160        1.000000        0.32608610        0.02405840        0.00337344
     193         -1.069551        1.000000        0.47086201        0.01895420        0.00423227
     194         -1.069042        1.000000        0.41453658        0.02160965        0.00452275
     195         -1.068018        1.000000        0.44182251        0.02196357        0.00432425
     196         -1.067683        1.000000        0.33341611        0.01662571        0.00352047
     197         -1.067094        1.000000        0.39771347        0.02757009        0.00435628
     198         -1.066200        1.000000        0.44241766        0.02279919        0.00455231
     199         -1.065105        1.000000        0.41505999        0.01711247        0.00350418
     200         -1.064600        1.000000        0.38364741        0.01281347        0.00361561
     201         -1.063825        1.000000        0.30189583        0.01561053        0.00302972
     202         -1.063672        1.000000        0.33777413        0.01453435        0.00347959
     203         -1.062915        1.000000        0.39867493        0.01421059        0.00394101
     204         -1.062259        1.000000        0.50828103        0.02196067        0.00456029
     205         -1.061986        1.000000        0.40396090        0.01176992        0.00349727
     206         -1.060822        1.000000        0.50482311        0.01500148        0.00461191
     207         -1.060230        1.000000        0.32452163        0.00956923        0.00335839
     208         -1.059971        1.000000        0.39429387        0.01090613        0.00369043
     209         -1.059399        1.000000        0.47079815        0.01405691        0.00379831
     210         -1.058798        1.000000        0.50775688        0.01391034        0.00410696
     211         -1.058498        1.000000        0.43608009        0.01528226        0.00400987
     212         -1.057049        1.000000        0.41151707        0.01083154        0.00342160
     213         -1.056896        1.000000        0.35220572        0.00798072        0.00324814
     214         -1.056403        1.000000        0.35756732        0.00887933        0.00353285
     215         -1.056079        1.000000        0.48862453        0.01201622        0.00426428
     216         -1.055624        1.000000        0.48143410        0.01117098        0.00383144
     217         -1.055288        1.000000        0.48878809        0.01149549        0.00391688
     218         -1.054828        1.000000        0.45946664        0.01076580        0.00401952
     219         -1.054413        1.000000        0.47700031        0.01079293        0.00378199
     220         -1.053990        1.000000        0.46210070        0.01008375        0.00402953
     221         -1.053598        1.000000        0.44432034        0.00958018        0.00359635
     222         -1.053387        1.000000        0.37770047        0.00955460        0.00321634
     223         -1.052953        1.000000        0.52100320        0.01207185        0.00430926
     224         -1.052779        1.000000        0.51036243        0.00960125        0.00398382
     225         -1.052376        1.000000        0.44037207        0.00923541        0.00379658
     226         -1.052297        1.000000        0.46520247        0.01060877        0.00417698
     227         -1.051819        1.000000        0.49167295        0.01100993        0.00431967
     228         -1.051536        1.000000        0.41435538        0.00798880        0.00336630
     229         -1.051232        1.000000        0.52591396        0.01159271        0.00418887
     230         -1.050581        1.000000        0.50826281        0.01252372        0.00427284
     231         -1.050140        1.000000        0.46910003        0.01240839        0.00380057
     232         -1.049834        1.000000        0.49476984        0.01094859        0.00407584
     233         -1.049588        1.000000        0.41196409        0.00822976        0.00401885
     234         -1.049506        1.000000        0.41660523        0.01117302        0.00335750
     235         -1.048565        1.000000        0.50559777        0.01127799        0.00405913
     236         -1.048103        1.000000        0.46215912        0.00968358        0.00382645
     237         -1.048023        1.000000        0.46852521        0.01043095        0.00401271
     238         -1.047651        1.000000        0.49556174        0.01178891        0.00406852
     239         -1.047305        1.000000        0.42377538        0.00820832        0.00384746
     240         -1.046707        1.000000        0.33597849        0.00689836        0.00325837
     241         -1.046592        1.000000        0.40216740        0.00860070        0.00348180
     242         -1.046281        1.000000        0.32879162        0.00809711        0.00367674
     243         -1.045974        1.000000        0.46935043        0.00941777        0.00367151
     244         -1.045866        1.000000        0.51571332        0.01272794        0.00411755
     245         -1.045771        1.000000        0.44567639        0.01083918        0.00375476
     246         -1.045301        1.000000        0.48256297        0.00857998        0.00394235
     247         -1.045020        1.000000        0.45057488        0.00872614        0.00340394
     248         -1.043956        1.000000        0.26588420        0.00631682        0.00247964
     249         -1.043818        1.000000        0.46224482        0.00985199        0.00366153
     250         -1.043244        1.000000        0.47100671        0.00942565        0.00379175
     251         -1.043119        1.000000        0.44818914        0.00675550        0.00400578
     252         -1.042993        1.000000        0.45626721        0.01000889        0.00356932
     253         -1.042515        1.000000        0.18271909        0.00549158        0.00208143
     254         -1.041302        1.000000        0.47126440        0.00901256        0.00350625
     255         -1.041116        1.000000        0.52644449        0.01099391        0.00381278
     256         -1.040594        1.000000        0.56721334        0.01013159        0.00412014
     257         -1.040094        1.000000        0.54350231        0.01134803        0.00410060
     258         -1.039599        1.000000        0.56309489        0.00990406        0.00440347
     259         -1.039408        1.000000        0.52808304        0.01172932        0.00417585
     260         -1.038970        1.000000        0.55430415        0.01174586        0.00405688
     261         -1.038561        1.000000        0.56219960        0.01039677        0.00425122
     262         -1.038022        1.000000        0.25775574        0.00964089        0.00284960
     263         -1.037841        1.000000        0.54642506        0.01077206        0.00372985
     264         -1.036991        1.000000        0.49225638        0.01141631        0.00361147
     265         -1.036854        1.000000        0.52850517        0.01128164        0.00390618
     266         -1.035910        1.000000        0.54432877        0.01043801        0.00380162
     267         -1.035115        1.000000        0.55801919        0.00915560        0.00375827
     268         -1.034275        1.000000        0.57010208        0.01009532        0.00426504
     269         -1.033697        1.000000        0.56786728        0.01332081        0.00388118
     270         -1.033444        1.000000        0.31572041        0.00842565        0.00291327
     271         -1.033385        1.000000        0.35148842        0.00864837        0.00322736
     272         -1.033262        1.000000        0.55119388        0.01092671        0.00418085
     273         -1.032346        1.000000        0.10321931        0.00314595        0.00174428
     274         -1.031626        1.000000        0.53599720        0.01074278        0.00419013
     275         -1.030746        1.000000        0.57335403        0.00907060        0.00442263
     276         -1.029780        1.000000        0.56869053        0.01083274        0.00409863
     277         -1.028980        1.000000        0.56912693        0.00987043        0.00417686
     278         -1.027492        1.000000        0.56825796        0.01285157        0.00412047
     279         -1.025795        1.000000        0.55165287        0.01073669        0.00402897
     280         -1.023990        1.000000        0.58394309        0.00868363        0.00401634
     281         -1.022755        1.000000        0.57771123        0.01366019        0.00444627
     282         -1.019871        1.000000        0.58724671        0.01146636        0.00383380
     283         -1.017737        1.000000        0.08610575        0.00673976        0.00240175
     284         -1.012409        1.000000        0.59165013        0.01580566        0.00463539
     285         -1.010522        1.000000        0.09351908        0.00495308        0.00239240
     286         -0.880961        1.000000        0.00000472        0.00000294        0.00000012
     287         -0.861761        1.000000        0.00000146        0.00000142        0.00000010
     288         -0.860652        1.000000        0.00000141        0.00000132        0.00000010
     289         -0.854811        1.000000        0.00000118        0.00000126        0.00000007
     290         -0.853189        1.000000        0.00000057        0.00000075        0.00000007
     291         -0.838407        1.000000        0.00000055        0.00000053        0.00000006
     292         -0.837131        1.000000        0.00000056        0.00000046        0.00000006
     293         -0.835422        1.000000        0.00000043        0.00000059        0.00000006
     294         -0.832873        1.000000        0.00000028        0.00000047        0.00000005
     295         -0.813092        1.000000        0.00000028        0.00000030        0.00000004
     296         -0.811309        1.000000        0.00000022        0.00000033        0.00000005
     297         -0.805633        1.000000        0.00000508        0.00000271        0.00000013
     298         -0.800994        1.000000        0.00000164        0.00000141        0.00000011
     299         -0.798544        1.000000        0.00000085        0.00000102        0.00000009
     300         -0.797176        1.000000        0.00000069        0.00000057        0.00000004
     301         -0.796065        1.000000        0.00000021        0.00000027        0.00000004
     302         -0.795247        1.000000        0.00000082        0.00000056        0.00000007
     303         -0.794465        1.000000        0.00000022        0.00000025        0.00000003
     304         -0.792558        1.000000        0.00000012        0.00000029        0.00000004
     305         -0.791532        1.000000        0.00000071        0.00000077        0.00000005
     306         -0.790931        1.000000        0.00000022        0.00000040        0.00000004
     307         -0.790366        1.000000        0.00000031        0.00000064        0.00000006