# Projected DOS for list 176 of 1 atoms, at iteration step i = 0, E(Fermi) =    -0.237583 a.u.
#     MO Eigenvalue [a.u.]      Occupation                 s                 p                 d
       1         -3.115895        1.000000        0.00000001        0.00000000        0.00000000
       2         -3.112717        1.000000        0.00000000        0.00000000        0.00000000
       3         -3.112103        1.000000        0.00000000        0.00000000        0.00000000
       4         -3.111180        1.000000        0.00000000        0.00000001        0.00000000
       5         -3.110810        1.000000        0.00000000        0.00000000        0.00000000
       6         -3.110575        1.000000        0.00000000        0.00000000        0.00000000
       7         -3.110067        1.000000        0.00000000        0.00000000        0.00000000
       8         -3.109817        1.000000        0.00000001        0.00000000        0.00000000
       9         -3.109660        1.000000        0.00000001        0.00000001        0.00000000
      10         -3.108831        1.000000        0.00000000        0.00000001        0.00000000
      11         -3.108678        1.000000        0.00000000        0.00000001        0.00000000
      12         -3.108578        1.000000        0.00000000        0.00000000        0.00000000
      13         -3.108350        1.000000        0.00000000        0.00000001        0.00000000
      14         -3.108163        1.000000        0.00000000        0.00000000        0.00000000
      15         -3.107948        1.000000        0.00000000        0.00000000        0.00000000
      16         -3.107865        1.000000        0.00000000        0.00000000        0.00000000
      17         -3.107703        1.000000        0.00000000        0.00000000        0.00000000
      18         -3.107683        1.000000        0.00000000        0.00000000        0.00000000
      19         -3.107641        1.000000        0.00000000        0.00000000        0.00000000
      20         -3.107604        1.000000        0.00000000        0.00000000        0.00000000
      21         -3.107402        1.000000        0.00000000        0.00000000        0.00000000
      22         -3.107115        1.000000        0.00000000        0.00000000        0.00000000
      23         -3.107013        1.000000        0.00000000        0.00000000        0.00000000
      24         -3.106750        1.000000        0.00000000        0.00000000        0.00000000
      25         -3.106619        1.000000        0.00000000        0.00000000        0.00000000
      26         -3.106567        1.000000        0.00000000        0.00000000        0.00000000
      27         -3.106546        1.000000        0.00000000        0.00000000        0.00000000
      28         -3.106258        1.000000        0.00000000        0.00000000        0.00000000
      29         -3.106103        1.000000        0.00000000        0.00000000        0.00000000
      30         -3.104674        1.000000        0.00000000        0.00000000        0.00000000
      31         -1.775522        1.000000        0.00000000        0.00000000        0.00000000
      32         -1.773964        1.000000        0.00000000        0.00000000        0.00000000
      33         -1.773454        1.000000        0.00000000        0.00000000        0.00000000
      34         -1.773008        1.000000        0.00000000        0.00000000        0.00000000
      35         -1.772581        1.000000        0.00000000        0.00000000        0.00000000
      36         -1.772213        1.000000        0.00000000        0.00000000        0.00000000
      37         -1.771852        1.000000        0.00000000        0.00000000        0.00000000
      38         -1.771444        1.000000        0.00000000        0.00000000        0.00000000
      39         -1.771233        1.000000        0.00000000        0.00000000        0.00000000
      40         -1.770977        1.000000        0.00000000        0.00000000        0.00000000
      41         -1.770760        1.000000        0.00000000        0.00000000        0.00000000
      42         -1.770111        1.000000        0.00000000        0.00000000        0.00000000
      43         -1.770034        1.000000        0.00000000        0.00000000        0.00000000
      44         -1.769495        1.000000        0.00000000        0.00000000        0.00000000
      45         -1.769421        1.000000        0.00000000        0.00000000        0.00000000
      46         -1.769063        1.000000        0.00000000        0.00000000        0.00000000
      47         -1.768532        1.000000        0.00000000        0.00000000        0.00000000
      48         -1.768412        1.000000        0.00000000        0.00000000        0.00000000
      49         -1.767811        1.000000        0.00000000        0.00000000        0.00000000
      50         -1.767614        1.000000        0.00000000        0.00000000        0.00000000
      51         -1.767477        1.000000        0.00000000        0.00000000        0.00000000
      52         -1.765531        1.000000        0.00000000        0.00000000        0.00000000
      53         -1.765088        1.000000        0.00000000        0.00000000        0.00000000
      54         -1.764557        1.000000        0.00000000        0.00000000        0.00000000
      55         -1.763772        1.000000        0.00000000        0.00000000        0.00000000
      56         -1.763328        1.000000        0.00000000        0.00000000        0.00000000
      57         -1.762925        1.000000        0.00000000        0.00000000        0.00000000
      58         -1.762506        1.000000        0.00000000        0.00000000        0.00000000
      59         -1.762119        1.000000        0.00000000        0.00000000        0.00000000
      60         -1.762053        1.000000        0.00000000        0.00000000        0.00000000
      61         -1.761895        1.000000        0.00000000        0.00000000        0.00000000
      62         -1.761602        1.000000        0.00000000        0.00000000        0.00000000
      63         -1.761509        1.000000        0.00000000        0.00000000        0.00000000
      64         -1.761377        1.000000        0.00000000        0.00000000        0.00000000
      65         -1.761171        1.000000        0.00000000        0.00000000        0.00000000
      66         -1.760998        1.000000        0.00000000        0.00000000        0.00000000
      67         -1.760877        1.000000        0.00000000        0.00000000        0.00000000
      68         -1.760806        1.000000        0.00000000        0.00000000        0.00000000
      69         -1.760684        1.000000        0.00000000        0.00000000        0.00000000
      70         -1.760645        1.000000        0.00000000        0.00000000        0.00000000
      71         -1.760442        1.000000        0.00000000        0.00000000        0.00000000
      72         -1.760098        1.000000        0.00000000        0.00000000        0.00000000
      73         -1.759962        1.000000        0.00000000        0.00000000        0.00000000
      74         -1.759824        1.000000        0.00000000        0.00000000        0.00000000
      75         -1.759787        1.000000        0.00000000        0.00000000        0.00000000
      76         -1.759638        1.000000        0.00000000        0.00000000        0.00000000
      77         -1.759601        1.000000        0.00000000        0.00000000        0.00000000
      78         -1.759512        1.000000        0.00000000        0.00000000        0.00000000
      79         -1.759406        1.000000        0.00000000        0.00000000        0.00000000
      80         -1.759287        1.000000        0.00000000        0.00000000        0.00000000
      81         -1.759176        1.000000        0.00000000        0.00000000        0.00000000
      82         -1.758872        1.000000        0.00000000        0.00000000        0.00000000
      83         -1.758781        1.000000        0.00000000        0.00000000        0.00000000
      84         -1.758726        1.000000        0.00000000        0.00000000        0.00000000
      85         -1.758559        1.000000        0.00000000        0.00000000        0.00000000
      86         -1.758378        1.000000        0.00000000        0.00000000        0.00000000
      87         -1.758294        1.000000        0.00000000        0.00000000        0.00000000
      88         -1.758087        1.000000        0.00000000        0.00000000        0.00000000
      89         -1.757987        1.000000        0.00000000        0.00000000        0.00000000
      90         -1.757734        1.000000        0.00000000        0.00000000        0.00000000
      91         -1.757649        1.000000        0.00000000        0.00000000        0.00000000
      92         -1.757529        1.000000        0.00000000        0.00000000        0.00000000
      93         -1.757404        1.000000        0.00000000        0.00000000        0.00000000
      94         -1.757324        1.000000        0.00000000        0.00000000        0.00000000
      95         -1.757187        1.000000        0.00000000        0.00000000        0.00000000
      96         -1.757137        1.000000        0.00000000        0.00000000        0.00000000
      97         -1.756770        1.000000        0.00000000        0.00000000        0.00000000
      98         -1.756598        1.000000        0.00000000        0.00000000        0.00000000
      99         -1.756513        1.000000        0.00000000        0.00000000        0.00000000
     100         -1.756186        1.000000        0.00000000        0.00000000        0.00000000
     101         -1.755847        1.000000        0.00000000        0.00000000        0.00000000
     102         -1.755716        1.000000        0.00000000        0.00000000        0.00000000
     103         -1.755306        1.000000        0.00000000        0.00000000        0.00000000
     104         -1.755052        1.000000        0.00000000        0.00000000        0.00000000
     105         -1.754765        1.000000        0.00000000        0.00000000        0.00000000
     106         -1.754094        1.000000        0.00000000        0.00000000        0.00000000
     107         -1.753681        1.000000        0.00000000        0.00000000        0.00000000
     108         -1.753548        1.000000        0.00000000        0.00000000        0.00000000
     109         -1.753256        1.000000        0.00000000        0.00000000        0.00000000
     110         -1.752675        1.000000        0.00000000        0.00000000        0.00000000
     111         -1.752502        1.000000        0.00000000        0.00000000        0.00000000
     112         -1.752253        1.000000        0.00000000        0.00000000        0.00000000
     113         -1.751643        1.000000        0.00000000        0.00000000        0.00000000
     114         -1.751317        1.000000        0.00000000        0.00000000        0.00000000
     115         -1.749193        1.000000        0.00000000        0.00000000        0.00000000
     116         -1.748137        1.000000        0.00000000        0.00000000        0.00000000
     117         -1.747283        1.000000        0.00000000        0.00000000        0.00000000
     118         -1.745962        1.000000        0.00000000        0.00000000        0.00000000
     119         -1.745880        1.000000        0.00000000        0.00000000        0.00000000
     120         -1.744143        1.000000        0.00000000        0.00000000        0.00000000
     121         -1.145318        1.000000        0.00006527        0.00000577        0.00000232
     122         -1.141162        1.000000        0.00002737        0.00000153        0.00000164
     123         -1.135518        1.000000        0.00204248        0.00031018        0.00007291
     124         -1.134356        1.000000        0.00085174        0.00006516        0.00003216
     125         -1.132797        1.000000        0.00058619        0.00001430        0.00001848
     126         -1.131675        1.000000        0.00030418        0.00009438        0.00001126
     127         -1.130657        1.000000        0.00011039        0.00005112        0.00000439
     128         -1.129329        1.000000        0.00003790        0.00000467        0.00000356
     129         -1.127805        1.000000        0.00049784        0.00004366        0.00002423
     130         -1.126970        1.000000        0.00007195        0.00050803        0.00000807
     131         -1.125100        1.000000        0.00584225        0.00056552        0.00016910
     132         -1.124640        1.000000        0.00003309        0.00012263        0.00000742
     133         -1.122028        1.000000        0.00506138        0.00012393        0.00012718
     134         -1.120887        1.000000        0.00204591        0.00002874        0.00006283
     135         -1.119308        1.000000        0.00495335        0.00008362        0.00012115
     136         -1.118408        1.000000        0.00055902        0.00003176        0.00001873
     137         -1.117769        1.000000        0.00012158        0.00016722        0.00001213
     138         -1.116570        1.000000        0.00007053        0.00090415        0.00002292
     139         -1.115096        1.000000        0.00111982        0.00001777        0.00002671
     140         -1.114402        1.000000        0.00135277        0.00019938        0.00003876
     141         -1.114039        1.000000        0.00105756        0.00001385        0.00003737
     142         -1.112381        1.000000        0.01240956        0.00077668        0.00027645
     143         -1.111588        1.000000        0.01259847        0.00028965        0.00026122
     144         -1.111356        1.000000        0.01089354        0.00079007        0.00023128
     145         -1.110913        1.000000        0.00110137        0.00005242        0.00002520
     146         -1.109631        1.000000        0.00105213        0.00042992        0.00003483
     147         -1.107338        1.000000        0.00147903        0.00008036        0.00002267
     148         -1.107163        1.000000        0.00393252        0.00033258        0.00007437
     149         -1.106911        1.000000        0.00041110        0.00002658        0.00000603
     150         -1.105904        1.000000        0.00174229        0.00016527        0.00002568
     151         -1.104513        1.000000        0.00067662        0.00000897        0.00001536
     152         -1.103753        1.000000        0.00116704        0.00047576        0.00002491
     153         -1.103233        1.000000        0.00051403        0.00073591        0.00004214
     154         -1.101116        1.000000        0.01564534        0.00021662        0.00020495
     155         -1.099878        1.000000        0.00864044        0.00052987        0.00013855
     156         -1.099527        1.000000        0.00044740        0.00001147        0.00000669
     157         -1.099360        1.000000        0.00069073        0.00103997        0.00002139
     158         -1.097449        1.000000        0.00004986        0.00004186        0.00000546
     159         -1.097246        1.000000        0.00456039        0.00010086        0.00005767
     160         -1.096336        1.000000        0.00317820        0.00002816        0.00004661
     161         -1.095776        1.000000        0.00288251        0.00005619        0.00003513
     162         -1.094258        1.000000        0.01009878        0.00055290        0.00012225
     163         -1.093701        1.000000        0.00170528        0.00042518        0.00002831
     164         -1.093107        1.000000        0.00134671        0.00010975        0.00004157
     165         -1.091600        1.000000        0.00071482        0.00007599        0.00000909
     166         -1.090890        1.000000        0.00611196        0.00004431        0.00008151
     167         -1.090283        1.000000        0.00027583        0.00000913        0.00000621
     168         -1.089378        1.000000        0.00000226        0.00066438        0.00001563
     169         -1.088506        1.000000        0.01733317        0.00036355        0.00020000
     170         -1.086931        1.000000        0.00280399        0.00001733        0.00003511
     171         -1.086367        1.000000        0.00089334        0.00152901        0.00002026
     172         -1.085327        1.000000        0.00687782        0.00017150        0.00005362
     173         -1.084766        1.000000        0.00103021        0.00006272        0.00002161
     174         -1.083961        1.000000        0.00087424        0.00009958        0.00000788
     175         -1.082920        1.000000        0.00214404        0.00033300        0.00002240
     176         -1.081700        1.000000        0.00169488        0.00072598        0.00004136
     177         -1.081031        1.000000        0.00055490        0.00001659        0.00001744
     178         -1.080558        1.000000        0.00027369        0.00000782        0.00000339
     179         -1.080415        1.000000        0.00763582        0.00008596        0.00008260
     180         -1.080047        1.000000        0.00027227        0.00012803        0.00000677
     181         -1.077309        1.000000        0.00793589        0.00290702        0.00006032
     182         -1.076601        1.000000        0.00000028        0.00013777        0.00000617
     183         -1.076342        1.000000        0.00005249        0.00004837        0.00000047
     184         -1.076154        1.000000        0.00111973        0.00031194        0.00000955
     185         -1.075469        1.000000        0.00005589        0.00002713        0.00000366
     186         -1.074904        1.000000        0.00008274        0.00003514        0.00001224
     187         -1.074160        1.000000        0.00000245        0.00004347        0.00000180
     188         -1.073364        1.000000        0.00014502        0.00003485        0.00000268
     189         -1.071841        1.000000        0.00025907        0.00027019        0.00000510
     190         -1.071436        1.000000        0.00011626        0.00000241        0.00000174
     191         -1.070358        1.000000        0.00344165        0.00017558        0.00001770
     192         -1.070160        1.000000        0.00392499        0.00027985        0.00002694
     193         -1.069551        1.000000        0.00462176        0.00016662        0.00001709
     194         -1.069042        1.000000        0.00133317        0.00005671        0.00001223
     195         -1.068018        1.000000        0.00050056        0.00013691        0.00000795
     196         -1.067683        1.000000        0.00000417        0.00000334        0.00000208
     197         -1.067094        1.000000        0.00006929        0.00002552        0.00001696
     198         -1.066200        1.000000        0.00008245        0.00001299        0.00001272
     199         -1.065105        1.000000        0.00013437        0.00001038        0.00000824
     200         -1.064600        1.000000        0.00016891        0.00005129        0.00000800
     201         -1.063825        1.000000        0.00028290        0.00000165        0.00000511
     202         -1.063672        1.000000        0.00100882        0.00012300        0.00000798
     203         -1.062915        1.000000        0.00864560        0.00006990        0.00004631
     204         -1.062259        1.000000        0.00003040        0.00000786        0.00000355
     205         -1.061986        1.000000        0.00589803        0.00012092        0.00014870
     206         -1.060822        1.000000        0.00542281        0.00009281        0.00001187
     207         -1.060230        1.000000        0.00011718        0.00003436        0.00003529
     208         -1.059971        1.000000        0.00478561        0.00035160        0.00016271
     209         -1.059399        1.000000        0.01046097        0.00015119        0.00003412
     210         -1.058798        1.000000        0.00219543        0.00001822        0.00001249
     211         -1.058498        1.000000        0.00005992        0.00000694        0.00003440
     212         -1.057049        1.000000        0.00518521        0.00013024        0.00006275
     213         -1.056896        1.000000        0.00350623        0.00005515        0.00000403
     214         -1.056403        1.000000        0.00698616        0.00006964        0.00001524
     215         -1.056079        1.000000        0.00085194        0.00000930        0.00000260
     216         -1.055624        1.000000        0.02922231        0.00028542        0.00006247
     217         -1.055288        1.000000        0.00411851        0.00002244        0.00001164
     218         -1.054828        1.000000        0.00554384        0.00003532        0.00002648
     219         -1.054413        1.000000        0.00011540        0.00002205        0.00003081
     220         -1.053990        1.000000        0.00027212        0.00010613        0.00005754
     221         -1.053598        1.000000        0.00068709        0.00001737        0.00001114
     222         -1.053387        1.000000        0.00069067        0.00001209        0.00000766
     223         -1.052953        1.000000        0.00001608        0.00000147        0.00001608
     224         -1.052779        1.000000        0.01773345        0.00012162        0.00001868
     225         -1.052376        1.000000        0.02237315        0.00016552        0.00004450
     226         -1.052297        1.000000        0.00495362        0.00011791        0.00006321
     227         -1.051819        1.000000        0.00025547        0.00001578        0.00000300
     228         -1.051536        1.000000        0.00110312        0.00006077        0.00003296
     229         -1.051232        1.000000        0.00531086        0.00003571        0.00002880
     230         -1.050581        1.000000        0.00000091        0.00001748        0.00000682
     231         -1.050140        1.000000        0.01428778        0.00010391        0.00001581
     232         -1.049834        1.000000        0.03010869        0.00021605        0.00002163
     233         -1.049588        1.000000        0.00165159        0.00000829        0.00000284
     234         -1.049506        1.000000        0.00104844        0.00000482        0.00000429
     235         -1.048565        1.000000        0.01987194        0.00019230        0.00004716
     236         -1.048103        1.000000        0.01210341        0.00007968        0.00003506
     237         -1.048023        1.000000        0.00182159        0.00001371        0.00004187
     238         -1.047651        1.000000        0.00180836        0.00001820        0.00004469
     239         -1.047305        1.000000        0.00058890        0.00001309        0.00002780
     240         -1.046707        1.000000        0.00006979        0.00004849        0.00014526
     241         -1.046592        1.000000        0.00243838        0.00012783        0.00020234
     242         -1.046281        1.000000        0.00314421        0.00006182        0.00006613
     243         -1.045974        1.000000        0.02921075        0.00020089        0.00006605
     244         -1.045866        1.000000        0.01008348        0.00007910        0.00006454
     245         -1.045771        1.000000        0.00459932        0.00003182        0.00001170
     246         -1.045301        1.000000        0.00211073        0.00001507        0.00001000
     247         -1.045020        1.000000        0.00115156        0.00002263        0.00006625
     248         -1.043956        1.000000        0.00263104        0.00003321        0.00003826
     249         -1.043818        1.000000        0.00725649        0.00004182        0.00001598
     250         -1.043244        1.000000        0.00030683        0.00001220        0.00001095
     251         -1.043119        1.000000        0.00242025        0.00001364        0.00000309
     252         -1.042993        1.000000        0.00998031        0.00009084        0.00002803
     253         -1.042515        1.000000        0.00001041        0.00000927        0.00000865
     254         -1.041302        1.000000        0.00112958        0.00000540        0.00000438
     255         -1.041116        1.000000        0.00002771        0.00003120        0.00000324
     256         -1.040594        1.000000        0.01182226        0.00012473        0.00004080
     257         -1.040094        1.000000        0.00230900        0.00009027        0.00001231
     258         -1.039599        1.000000        0.04086802        0.00038713        0.00011656
     259         -1.039408        1.000000        0.00219633        0.00001428        0.00000253
     260         -1.038970        1.000000        0.00027260        0.00000866        0.00000330
     261         -1.038561        1.000000        0.00104801        0.00000935        0.00000334
     262         -1.038022        1.000000        0.00004145        0.00000259        0.00000153
     263         -1.037841        1.000000        0.00007426        0.00000648        0.00000614
     264         -1.036991        1.000000        0.00050416        0.00003905        0.00002327
     265         -1.036854        1.000000        0.00002731        0.00001454        0.00000909
     266         -1.035910        1.000000        0.00004957        0.00000303        0.00000052
     267         -1.035115        1.000000        0.00425068        0.00039689        0.00029221
     268         -1.034275        1.000000        0.00013358        0.00004466        0.00002510
     269         -1.033697        1.000000        0.00021118        0.00002274        0.00003694
     270         -1.033444        1.000000        0.00151100        0.00005231        0.00003946
     271         -1.033385        1.000000        0.00008155        0.00001852        0.00002689
     272         -1.033262        1.000000        0.00014767        0.00002743        0.00001783
     273         -1.032346        1.000000        0.00034709        0.00001409        0.00000433
     274         -1.031626        1.000000        0.00000003        0.00000221        0.00000577
     275         -1.030746        1.000000        0.00000004        0.00000038        0.00000051
     276         -1.029780        1.000000        0.00004227        0.00001229        0.00001043
     277         -1.028980        1.000000        0.00001407        0.00000147        0.00000041
     278         -1.027492        1.000000        0.00004507        0.00000064        0.00000160
     279         -1.025795        1.000000        0.00001298        0.00000063        0.00000044
     280         -1.023990        1.000000        0.00005328        0.00000199        0.00000107
     281         -1.022755        1.000000        0.00000009        0.00000000        0.00000000
     282         -1.019871        1.000000        0.00000184        0.00000023        0.00000020
     283         -1.017737        1.000000        0.00001638        0.00000252        0.00000068
     284         -1.012409        1.000000        0.00009446        0.00000652        0.00000296
     285         -1.010522        1.000000        0.00000000        0.00000000        0.00000000
     286         -0.880961        1.000000        0.00000003        0.00000001        0.00000000
     287         -0.861761        1.000000        0.00000000        0.00000000        0.00000000
     288         -0.860652        1.000000        0.00000000        0.00000001        0.00000000
     289         -0.854811        1.000000        0.00000000        0.00000001        0.00000000
     290         -0.853189        1.000000        0.00000001        0.00000001        0.00000000
     291         -0.838407        1.000000        0.00000000        0.00000000        0.00000000
     292         -0.837131        1.000000        0.00000000        0.00000002        0.00000000
     293         -0.835422        1.000000        0.00000000        0.00000000        0.00000000
     294         -0.832873        1.000000        0.00000001        0.00000000        0.00000000
     295         -0.813092        1.000000        0.00000000        0.00000000        0.00000000
     296         -0.811309        1.000000        0.00000000        0.00000001        0.00000000
     297         -0.805633        1.000000        0.00000003        0.00000002        0.00000000
     298         -0.800994        1.000000        0.00000001        0.00000000        0.00000000
     299         -0.798544        1.000000        0.00000001        0.00000002        0.00000000
     300         -0.797176        1.000000        0.00000000        0.00000001        0.00000000
     301         -0.796065        1.000000        0.00000000        0.00000000        0.00000000
     302         -0.795247        1.000000        0.00000000        0.00000000        0.00000000
     303         -0.794465        1.000000        0.00000000        0.00000000        0.00000000
     304         -0.792558        1.000000        0.00000001        0.00000004        0.00000000
     305         -0.791532        1.000000        0.00000000        0.00000001        0.00000000
     306         -0.790931        1.000000        0.00000000        0.00000000        0.00000000
     307         -0.790366        1.000000        0.00000001        0.00000001        0.00000000