# Projected DOS for list 162 of 1 atoms, at iteration step i = 0, E(Fermi) =    -0.237583 a.u.
#     MO Eigenvalue [a.u.]      Occupation                 s                 p                 d
       1         -3.115895        1.000000        0.00000000        0.00000000        0.00000000
       2         -3.112717        1.000000        0.00000000        0.00000000        0.00000000
       3         -3.112103        1.000000        0.00000000        0.00000000        0.00000000
       4         -3.111180        1.000000        0.00000000        0.00000000        0.00000000
       5         -3.110810        1.000000        0.00000000        0.00000000        0.00000000
       6         -3.110575        1.000000        0.00000000        0.00000000        0.00000000
       7         -3.110067        1.000000        0.00000000        0.00000000        0.00000000
       8         -3.109817        1.000000        0.00000000        0.00000000        0.00000000
       9         -3.109660        1.000000        0.00000000        0.00000000        0.00000000
      10         -3.108831        1.000000        0.00000000        0.00000000        0.00000000
      11         -3.108678        1.000000        0.00000000        0.00000000        0.00000000
      12         -3.108578        1.000000        0.00000000        0.00000000        0.00000000
      13         -3.108350        1.000000        0.00000000        0.00000000        0.00000000
      14         -3.108163        1.000000        0.00000000        0.00000000        0.00000000
      15         -3.107948        1.000000        0.00000000        0.00000000        0.00000000
      16         -3.107865        1.000000        0.00000000        0.00000000        0.00000000
      17         -3.107703        1.000000        0.00000000        0.00000000        0.00000000
      18         -3.107683        1.000000        0.00000000        0.00000000        0.00000000
      19         -3.107641        1.000000        0.00000000        0.00000000        0.00000000
      20         -3.107604        1.000000        0.00000000        0.00000000        0.00000000
      21         -3.107402        1.000000        0.00000000        0.00000000        0.00000000
      22         -3.107115        1.000000        0.00000000        0.00000000        0.00000000
      23         -3.107013        1.000000        0.00000000        0.00000000        0.00000000
      24         -3.106750        1.000000        0.00000000        0.00000000        0.00000000
      25         -3.106619        1.000000        0.00000000        0.00000000        0.00000000
      26         -3.106567        1.000000        0.00000000        0.00000000        0.00000000
      27         -3.106546        1.000000        0.00000000        0.00000000        0.00000000
      28         -3.106258        1.000000        0.00000000        0.00000000        0.00000000
      29         -3.106103        1.000000        0.00000000        0.00000000        0.00000000
      30         -3.104674        1.000000        0.00000000        0.00000000        0.00000000
      31         -1.775522        1.000000        0.00000000        0.00000000        0.00000000
      32         -1.773964        1.000000        0.00000000        0.00000000        0.00000000
      33         -1.773454        1.000000        0.00000000        0.00000000        0.00000000
      34         -1.773008        1.000000        0.00000000        0.00000000        0.00000000
      35         -1.772581        1.000000        0.00000000        0.00000000        0.00000000
      36         -1.772213        1.000000        0.00000000        0.00000000        0.00000000
      37         -1.771852        1.000000        0.00000000        0.00000000        0.00000000
      38         -1.771444        1.000000        0.00000000        0.00000000        0.00000000
      39         -1.771233        1.000000        0.00000000        0.00000000        0.00000000
      40         -1.770977        1.000000        0.00000000        0.00000000        0.00000000
      41         -1.770760        1.000000        0.00000000        0.00000000        0.00000000
      42         -1.770111        1.000000        0.00000000        0.00000000        0.00000000
      43         -1.770034        1.000000        0.00000000        0.00000000        0.00000000
      44         -1.769495        1.000000        0.00000000        0.00000000        0.00000000
      45         -1.769421        1.000000        0.00000000        0.00000000        0.00000000
      46         -1.769063        1.000000        0.00000000        0.00000000        0.00000000
      47         -1.768532        1.000000        0.00000000        0.00000000        0.00000000
      48         -1.768412        1.000000        0.00000000        0.00000000        0.00000000
      49         -1.767811        1.000000        0.00000000        0.00000000        0.00000000
      50         -1.767614        1.000000        0.00000000        0.00000000        0.00000000
      51         -1.767477        1.000000        0.00000000        0.00000000        0.00000000
      52         -1.765531        1.000000        0.00000000        0.00000000        0.00000000
      53         -1.765088        1.000000        0.00000000        0.00000000        0.00000000
      54         -1.764557        1.000000        0.00000000        0.00000000        0.00000000
      55         -1.763772        1.000000        0.00000000        0.00000000        0.00000000
      56         -1.763328        1.000000        0.00000000        0.00000000        0.00000000
      57         -1.762925        1.000000        0.00000000        0.00000000        0.00000000
      58         -1.762506        1.000000        0.00000000        0.00000000        0.00000000
      59         -1.762119        1.000000        0.00000000        0.00000000        0.00000000
      60         -1.762053        1.000000        0.00000000        0.00000000        0.00000000
      61         -1.761895        1.000000        0.00000000        0.00000000        0.00000000
      62         -1.761602        1.000000        0.00000000        0.00000000        0.00000000
      63         -1.761509        1.000000        0.00000000        0.00000000        0.00000000
      64         -1.761377        1.000000        0.00000000        0.00000000        0.00000000
      65         -1.761171        1.000000        0.00000000        0.00000000        0.00000000
      66         -1.760998        1.000000        0.00000000        0.00000000        0.00000000
      67         -1.760877        1.000000        0.00000000        0.00000000        0.00000000
      68         -1.760806        1.000000        0.00000000        0.00000000        0.00000000
      69         -1.760684        1.000000        0.00000000        0.00000000        0.00000000
      70         -1.760645        1.000000        0.00000000        0.00000000        0.00000000
      71         -1.760442        1.000000        0.00000000        0.00000000        0.00000000
      72         -1.760098        1.000000        0.00000000        0.00000000        0.00000000
      73         -1.759962        1.000000        0.00000000        0.00000000        0.00000000
      74         -1.759824        1.000000        0.00000000        0.00000000        0.00000000
      75         -1.759787        1.000000        0.00000000        0.00000000        0.00000000
      76         -1.759638        1.000000        0.00000000        0.00000000        0.00000000
      77         -1.759601        1.000000        0.00000000        0.00000000        0.00000000
      78         -1.759512        1.000000        0.00000000        0.00000000        0.00000000
      79         -1.759406        1.000000        0.00000000        0.00000000        0.00000000
      80         -1.759287        1.000000        0.00000000        0.00000000        0.00000000
      81         -1.759176        1.000000        0.00000000        0.00000000        0.00000000
      82         -1.758872        1.000000        0.00000000        0.00000000        0.00000000
      83         -1.758781        1.000000        0.00000000        0.00000000        0.00000000
      84         -1.758726        1.000000        0.00000000        0.00000000        0.00000000
      85         -1.758559        1.000000        0.00000000        0.00000000        0.00000000
      86         -1.758378        1.000000        0.00000000        0.00000000        0.00000000
      87         -1.758294        1.000000        0.00000000        0.00000000        0.00000000
      88         -1.758087        1.000000        0.00000000        0.00000000        0.00000000
      89         -1.757987        1.000000        0.00000000        0.00000000        0.00000000
      90         -1.757734        1.000000        0.00000000        0.00000000        0.00000000
      91         -1.757649        1.000000        0.00000000        0.00000000        0.00000000
      92         -1.757529        1.000000        0.00000000        0.00000000        0.00000000
      93         -1.757404        1.000000        0.00000000        0.00000000        0.00000000
      94         -1.757324        1.000000        0.00000000        0.00000000        0.00000000
      95         -1.757187        1.000000        0.00000000        0.00000000        0.00000000
      96         -1.757137        1.000000        0.00000000        0.00000000        0.00000000
      97         -1.756770        1.000000        0.00000000        0.00000000        0.00000000
      98         -1.756598        1.000000        0.00000000        0.00000000        0.00000000
      99         -1.756513        1.000000        0.00000000        0.00000000        0.00000000
     100         -1.756186        1.000000        0.00000000        0.00000000        0.00000000
     101         -1.755847        1.000000        0.00000000        0.00000000        0.00000000
     102         -1.755716        1.000000        0.00000000        0.00000000        0.00000000
     103         -1.755306        1.000000        0.00000000        0.00000000        0.00000000
     104         -1.755052        1.000000        0.00000000        0.00000000        0.00000000
     105         -1.754765        1.000000        0.00000000        0.00000000        0.00000000
     106         -1.754094        1.000000        0.00000000        0.00000000        0.00000000
     107         -1.753681        1.000000        0.00000000        0.00000000        0.00000000
     108         -1.753548        1.000000        0.00000000        0.00000000        0.00000000
     109         -1.753256        1.000000        0.00000000        0.00000000        0.00000000
     110         -1.752675        1.000000        0.00000000        0.00000000        0.00000000
     111         -1.752502        1.000000        0.00000000        0.00000000        0.00000000
     112         -1.752253        1.000000        0.00000000        0.00000000        0.00000000
     113         -1.751643        1.000000        0.00000000        0.00000000        0.00000000
     114         -1.751317        1.000000        0.00000000        0.00000000        0.00000000
     115         -1.749193        1.000000        0.00000000        0.00000000        0.00000000
     116         -1.748137        1.000000        0.00000000        0.00000000        0.00000000
     117         -1.747283        1.000000        0.00000000        0.00000000        0.00000000
     118         -1.745962        1.000000        0.00000000        0.00000000        0.00000000
     119         -1.745880        1.000000        0.00000000        0.00000000        0.00000000
     120         -1.744143        1.000000        0.00000000        0.00000000        0.00000000
     121         -1.145318        1.000000        0.00008959        0.00002184        0.00000363
     122         -1.141162        1.000000        0.00019515        0.00023345        0.00003732
     123         -1.135518        1.000000        0.00037269        0.00019317        0.00003987
     124         -1.134356        1.000000        0.00182387        0.00168551        0.00030152
     125         -1.132797        1.000000        0.00148386        0.00097753        0.00015475
     126         -1.131675        1.000000        0.00531095        0.00163793        0.00031622
     127         -1.130657        1.000000        0.00025561        0.00083342        0.00012457
     128         -1.129329        1.000000        0.00004505        0.00000779        0.00000297
     129         -1.127805        1.000000        0.00000690        0.00001149        0.00000296
     130         -1.126970        1.000000        0.00019820        0.00036779        0.00007886
     131         -1.125100        1.000000        0.00010805        0.00040475        0.00004497
     132         -1.124640        1.000000        0.00000169        0.00005811        0.00001227
     133         -1.122028        1.000000        0.00152545        0.00035647        0.00012116
     134         -1.120887        1.000000        0.00329659        0.00136195        0.00041858
     135         -1.119308        1.000000        0.00029175        0.00022781        0.00008139
     136         -1.118408        1.000000        0.00002294        0.00036062        0.00007509
     137         -1.117769        1.000000        0.00341401        0.00122367        0.00036681
     138         -1.116570        1.000000        0.00042561        0.00013158        0.00004437
     139         -1.115096        1.000000        0.00021636        0.00080295        0.00015966
     140         -1.114402        1.000000        0.00002944        0.00185891        0.00042098
     141         -1.114039        1.000000        0.00126368        0.00033708        0.00008246
     142         -1.112381        1.000000        0.00022747        0.00032328        0.00005344
     143         -1.111588        1.000000        0.01787492        0.00163103        0.00035793
     144         -1.111356        1.000000        0.00057253        0.00005341        0.00001740
     145         -1.110913        1.000000        0.00255021        0.00030096        0.00012269
     146         -1.109631        1.000000        0.00373444        0.00081913        0.00022112
     147         -1.107338        1.000000        0.00106670        0.00139234        0.00045373
     148         -1.107163        1.000000        0.02082267        0.00428461        0.00105732
     149         -1.106911        1.000000        0.00013078        0.00101808        0.00032280
     150         -1.105904        1.000000        0.00005849        0.00444883        0.00134133
     151         -1.104513        1.000000        0.00130928        0.00077102        0.00020342
     152         -1.103753        1.000000        0.00073993        0.00036572        0.00010234
     153         -1.103233        1.000000        0.00025628        0.00119818        0.00038051
     154         -1.101116        1.000000        0.00199524        0.00236247        0.00060312
     155         -1.099878        1.000000        0.00245106        0.00189300        0.00045952
     156         -1.099527        1.000000        0.00150937        0.00008581        0.00003752
     157         -1.099360        1.000000        0.00090346        0.00086488        0.00020195
     158         -1.097449        1.000000        0.01330457        0.00131725        0.00039650
     159         -1.097246        1.000000        0.01048834        0.00006956        0.00006375
     160         -1.096336        1.000000        0.00003716        0.00164818        0.00046585
     161         -1.095776        1.000000        0.00364729        0.00003189        0.00002122
     162         -1.094258        1.000000        0.00155033        0.00123967        0.00035904
     163         -1.093701        1.000000        0.00012836        0.00176511        0.00068597
     164         -1.093107        1.000000        0.00342494        0.00225268        0.00082525
     165         -1.091600        1.000000        0.00496117        0.00109401        0.00047758
     166         -1.090890        1.000000        0.00007041        0.00237461        0.00084356
     167         -1.090283        1.000000        0.00004551        0.00021595        0.00004805
     168         -1.089378        1.000000        0.00061355        0.00160441        0.00041485
     169         -1.088506        1.000000        0.00039717        0.00073190        0.00029864
     170         -1.086931        1.000000        0.00189000        0.00144672        0.00053490
     171         -1.086367        1.000000        0.00002299        0.00145009        0.00043518
     172         -1.085327        1.000000        0.00000807        0.00024136        0.00010313
     173         -1.084766        1.000000        0.00025384        0.00272559        0.00079079
     174         -1.083961        1.000000        0.00252768        0.00646650        0.00217249
     175         -1.082920        1.000000        0.00158069        0.00074723        0.00021679
     176         -1.081700        1.000000        0.00000226        0.00091368        0.00038864
     177         -1.081031        1.000000        0.00002132        0.00088574        0.00034649
     178         -1.080558        1.000000        0.00240727        0.00098216        0.00035236
     179         -1.080415        1.000000        0.00079337        0.00034695        0.00010575
     180         -1.080047        1.000000        0.00154351        0.00186870        0.00067309
     181         -1.077309        1.000000        0.00006383        0.00022742        0.00006416
     182         -1.076601        1.000000        0.00102515        0.00461354        0.00188152
     183         -1.076342        1.000000        0.00101667        0.00315037        0.00113882
     184         -1.076154        1.000000        0.00002305        0.00068195        0.00026624
     185         -1.075469        1.000000        0.00001739        0.00250482        0.00099509
     186         -1.074904        1.000000        0.00006772        0.00242917        0.00098331
     187         -1.074160        1.000000        0.00114329        0.00806924        0.00291663
     188         -1.073364        1.000000        0.00002857        0.00026309        0.00009465
     189         -1.071841        1.000000        0.00283116        0.00215373        0.00083061
     190         -1.071436        1.000000        0.00122531        0.00388112        0.00165990
     191         -1.070358        1.000000        0.00110783        0.00059036        0.00028686
     192         -1.070160        1.000000        0.00025360        0.00187908        0.00076421
     193         -1.069551        1.000000        0.00003580        0.00044888        0.00015310
     194         -1.069042        1.000000        0.00011056        0.00403185        0.00139216
     195         -1.068018        1.000000        0.00003081        0.00141403        0.00051798
     196         -1.067683        1.000000        0.00010128        0.00129371        0.00056577
     197         -1.067094        1.000000        0.00001795        0.00626867        0.00224529
     198         -1.066200        1.000000        0.00004916        0.00279377        0.00095631
     199         -1.065105        1.000000        0.00003225        0.00013485        0.00006011
     200         -1.064600        1.000000        0.00014866        0.00097091        0.00034137
     201         -1.063825        1.000000        0.00002150        0.00048066        0.00016852
     202         -1.063672        1.000000        0.00023180        0.00196878        0.00068560
     203         -1.062915        1.000000        0.00000653        0.00152576        0.00054496
     204         -1.062259        1.000000        0.00019292        0.00019493        0.00008413
     205         -1.061986        1.000000        0.00006377        0.00015330        0.00006215
     206         -1.060822        1.000000        0.00001245        0.00128100        0.00041724
     207         -1.060230        1.000000        0.00000305        0.00015376        0.00005855
     208         -1.059971        1.000000        0.00001205        0.00009320        0.00003868
     209         -1.059399        1.000000        0.00000196        0.00129657        0.00053525
     210         -1.058798        1.000000        0.00001025        0.00036705        0.00016524
     211         -1.058498        1.000000        0.00001548        0.00148664        0.00065040
     212         -1.057049        1.000000        0.00000054        0.00036600        0.00014178
     213         -1.056896        1.000000        0.00000648        0.00014374        0.00005234
     214         -1.056403        1.000000        0.00000045        0.00066844        0.00023869
     215         -1.056079        1.000000        0.00004248        0.00201967        0.00078028
     216         -1.055624        1.000000        0.00000099        0.00173673        0.00066195
     217         -1.055288        1.000000        0.00006634        0.00737624        0.00291690
     218         -1.054828        1.000000        0.00008200        0.00452112        0.00171479
     219         -1.054413        1.000000        0.00000760        0.00126444        0.00049879
     220         -1.053990        1.000000        0.00000674        0.00143603        0.00061507
     221         -1.053598        1.000000        0.00000546        0.00039609        0.00013805
     222         -1.053387        1.000000        0.00001813        0.00588938        0.00230065
     223         -1.052953        1.000000        0.00000288        0.00175089        0.00065623
     224         -1.052779        1.000000        0.00000038        0.00012337        0.00004764
     225         -1.052376        1.000000        0.00008097        0.01360393        0.00545932
     226         -1.052297        1.000000        0.00017621        0.03098897        0.01210736
     227         -1.051819        1.000000        0.00000271        0.00079376        0.00035237
     228         -1.051536        1.000000        0.00001222        0.00249235        0.00097364
     229         -1.051232        1.000000        0.00005690        0.00267209        0.00102998
     230         -1.050581        1.000000        0.00002281        0.00104962        0.00043484
     231         -1.050140        1.000000        0.00003909        0.00127800        0.00057554
     232         -1.049834        1.000000        0.00030335        0.02107415        0.00919774
     233         -1.049588        1.000000        0.00001831        0.00156272        0.00064531
     234         -1.049506        1.000000        0.00008306        0.00387959        0.00159967
     235         -1.048565        1.000000        0.00004998        0.00114016        0.00057161
     236         -1.048103        1.000000        0.00003611        0.00004003        0.00002020
     237         -1.048023        1.000000        0.00001704        0.00104528        0.00054038
     238         -1.047651        1.000000        0.00001153        0.00117413        0.00050884
     239         -1.047305        1.000000        0.00000049        0.00122194        0.00058620
     240         -1.046707        1.000000        0.00000031        0.00004628        0.00002313
     241         -1.046592        1.000000        0.00001644        0.00022694        0.00010232
     242         -1.046281        1.000000        0.00002990        0.00048926        0.00022366
     243         -1.045974        1.000000        0.00001179        0.00074574        0.00037825
     244         -1.045866        1.000000        0.00037810        0.01054293        0.00538063
     245         -1.045771        1.000000        0.00034075        0.04830702        0.02323321
     246         -1.045301        1.000000        0.00005613        0.00207379        0.00102238
     247         -1.045020        1.000000        0.00005068        0.01364386        0.00628803
     248         -1.043956        1.000000        0.00003286        0.00105667        0.00038702
     249         -1.043818        1.000000        0.00005131        0.00219167        0.00082214
     250         -1.043244        1.000000        0.00000094        0.00026345        0.00013015
     251         -1.043119        1.000000        0.00004479        0.01125453        0.00451215
     252         -1.042993        1.000000        0.00033395        0.03654129        0.01520552
     253         -1.042515        1.000000        0.00009800        0.00876265        0.00369875
     254         -1.041302        1.000000        0.00001211        0.00066016        0.00026516
     255         -1.041116        1.000000        0.00000620        0.00310622        0.00124380
     256         -1.040594        1.000000        0.00015946        0.02632658        0.01042614
     257         -1.040094        1.000000        0.00006091        0.00092393        0.00047644
     258         -1.039599        1.000000        0.00001135        0.00352180        0.00139695
     259         -1.039408        1.000000        0.00000825        0.00605371        0.00258837
     260         -1.038970        1.000000        0.00001125        0.00769652        0.00393342
     261         -1.038561        1.000000        0.00000477        0.00038395        0.00014608
     262         -1.038022        1.000000        0.00004342        0.00896910        0.00430280
     263         -1.037841        1.000000        0.00000083        0.00004603        0.00002066
     264         -1.036991        1.000000        0.00001124        0.00712765        0.00354139
     265         -1.036854        1.000000        0.00001057        0.00271920        0.00130690
     266         -1.035910        1.000000        0.00001340        0.00295177        0.00140151
     267         -1.035115        1.000000        0.00001479        0.00041793        0.00014821
     268         -1.034275        1.000000        0.00007487        0.00134530        0.00054773
     269         -1.033697        1.000000        0.00001682        0.00026953        0.00014251
     270         -1.033444        1.000000        0.00000853        0.00222585        0.00105661
     271         -1.033385        1.000000        0.00001565        0.00586969        0.00288766
     272         -1.033262        1.000000        0.00003076        0.00727643        0.00377091
     273         -1.032346        1.000000        0.00000001        0.00000713        0.00000306
     274         -1.031626        1.000000        0.00001133        0.00564553        0.00296439
     275         -1.030746        1.000000        0.00001141        0.00046918        0.00024744
     276         -1.029780        1.000000        0.00015857        0.00792298        0.00432704
     277         -1.028980        1.000000        0.00013040        0.00236836        0.00129436
     278         -1.027492        1.000000        0.00000001        0.00000151        0.00000086
     279         -1.025795        1.000000        0.00000001        0.00000227        0.00000112
     280         -1.023990        1.000000        0.00000001        0.00000093        0.00000044
     281         -1.022755        1.000000        0.00000022        0.00000170        0.00000104
     282         -1.019871        1.000000        0.00000043        0.00007469        0.00005015
     283         -1.017737        1.000000        0.00000000        0.00000002        0.00000001
     284         -1.012409        1.000000        0.00000080        0.00001572        0.00000554
     285         -1.010522        1.000000        0.00000004        0.00000020        0.00000017
     286         -0.880961        1.000000        0.00000000        0.00000000        0.00000000
     287         -0.861761        1.000000        0.00000000        0.00000000        0.00000000
     288         -0.860652        1.000000        0.00000000        0.00000000        0.00000000
     289         -0.854811        1.000000        0.00000000        0.00000000        0.00000000
     290         -0.853189        1.000000        0.00000000        0.00000000        0.00000000
     291         -0.838407        1.000000        0.00000000        0.00000000        0.00000000
     292         -0.837131        1.000000        0.00000000        0.00000000        0.00000000
     293         -0.835422        1.000000        0.00000000        0.00000000        0.00000000
     294         -0.832873        1.000000        0.00000000        0.00000000        0.00000000
     295         -0.813092        1.000000        0.00000000        0.00000000        0.00000000
     296         -0.811309        1.000000        0.00000000        0.00000000        0.00000000
     297         -0.805633        1.000000        0.00000000        0.00000000        0.00000000
     298         -0.800994        1.000000        0.00000000        0.00000000        0.00000000
     299         -0.798544        1.000000        0.00000000        0.00000000        0.00000000
     300         -0.797176        1.000000        0.00000000        0.00000000        0.00000000
     301         -0.796065        1.000000        0.00000000        0.00000000        0.00000000
     302         -0.795247        1.000000        0.00000000        0.00000000        0.00000000
     303         -0.794465        1.000000        0.00000000        0.00000000        0.00000000
     304         -0.792558        1.000000        0.00000000        0.00000000        0.00000000
     305         -0.791532        1.000000        0.00000000        0.00000000        0.00000000
     306         -0.790931        1.000000        0.00000000        0.00000000        0.00000000
     307         -0.790366        1.000000        0.00000000        0.00000000        0.00000000