# Projected DOS for list 204 of 1 atoms, at iteration step i = 0, E(Fermi) =    -0.237583 a.u.
#     MO Eigenvalue [a.u.]      Occupation                 s                 p                 d
       1         -3.115895        1.000000        0.00000000        0.00000000        0.00000000
       2         -3.112717        1.000000        0.00000000        0.00000000        0.00000000
       3         -3.112103        1.000000        0.00000000        0.00000000        0.00000000
       4         -3.111180        1.000000        0.00000000        0.00000000        0.00000000
       5         -3.110810        1.000000        0.00000000        0.00000000        0.00000000
       6         -3.110575        1.000000        0.00000000        0.00000000        0.00000000
       7         -3.110067        1.000000        0.00000000        0.00000000        0.00000000
       8         -3.109817        1.000000        0.00000000        0.00000000        0.00000000
       9         -3.109660        1.000000        0.00000000        0.00000000        0.00000000
      10         -3.108831        1.000000        0.00000000        0.00000000        0.00000000
      11         -3.108678        1.000000        0.00000000        0.00000000        0.00000000
      12         -3.108578        1.000000        0.00000000        0.00000000        0.00000000
      13         -3.108350        1.000000        0.00000000        0.00000000        0.00000000
      14         -3.108163        1.000000        0.00000000        0.00000000        0.00000000
      15         -3.107948        1.000000        0.00000000        0.00000000        0.00000000
      16         -3.107865        1.000000        0.00000000        0.00000000        0.00000000
      17         -3.107703        1.000000        0.00000000        0.00000000        0.00000000
      18         -3.107683        1.000000        0.00000000        0.00000000        0.00000000
      19         -3.107641        1.000000        0.00000000        0.00000000        0.00000000
      20         -3.107604        1.000000        0.00000000        0.00000000        0.00000000
      21         -3.107402        1.000000        0.00000000        0.00000000        0.00000000
      22         -3.107115        1.000000        0.00000000        0.00000000        0.00000000
      23         -3.107013        1.000000        0.00000000        0.00000000        0.00000000
      24         -3.106750        1.000000        0.00000000        0.00000000        0.00000000
      25         -3.106619        1.000000        0.00000000        0.00000000        0.00000000
      26         -3.106567        1.000000        0.00000000        0.00000000        0.00000000
      27         -3.106546        1.000000        0.00000000        0.00000000        0.00000000
      28         -3.106258        1.000000        0.00000000        0.00000000        0.00000000
      29         -3.106103        1.000000        0.00000000        0.00000000        0.00000000
      30         -3.104674        1.000000        0.00000000        0.00000000        0.00000000
      31         -1.775522        1.000000        0.00000000        0.00000000        0.00000000
      32         -1.773964        1.000000        0.00000000        0.00000000        0.00000000
      33         -1.773454        1.000000        0.00000000        0.00000000        0.00000000
      34         -1.773008        1.000000        0.00000000        0.00000000        0.00000000
      35         -1.772581        1.000000        0.00000000        0.00000000        0.00000000
      36         -1.772213        1.000000        0.00000000        0.00000000        0.00000000
      37         -1.771852        1.000000        0.00000000        0.00000000        0.00000000
      38         -1.771444        1.000000        0.00000000        0.00000000        0.00000000
      39         -1.771233        1.000000        0.00000000        0.00000000        0.00000000
      40         -1.770977        1.000000        0.00000000        0.00000000        0.00000000
      41         -1.770760        1.000000        0.00000000        0.00000000        0.00000000
      42         -1.770111        1.000000        0.00000000        0.00000000        0.00000000
      43         -1.770034        1.000000        0.00000000        0.00000000        0.00000000
      44         -1.769495        1.000000        0.00000000        0.00000000        0.00000000
      45         -1.769421        1.000000        0.00000000        0.00000000        0.00000000
      46         -1.769063        1.000000        0.00000000        0.00000000        0.00000000
      47         -1.768532        1.000000        0.00000000        0.00000000        0.00000000
      48         -1.768412        1.000000        0.00000000        0.00000000        0.00000000
      49         -1.767811        1.000000        0.00000000        0.00000000        0.00000000
      50         -1.767614        1.000000        0.00000000        0.00000000        0.00000000
      51         -1.767477        1.000000        0.00000000        0.00000000        0.00000000
      52         -1.765531        1.000000        0.00000000        0.00000000        0.00000000
      53         -1.765088        1.000000        0.00000000        0.00000000        0.00000000
      54         -1.764557        1.000000        0.00000000        0.00000000        0.00000000
      55         -1.763772        1.000000        0.00000000        0.00000000        0.00000000
      56         -1.763328        1.000000        0.00000000        0.00000000        0.00000000
      57         -1.762925        1.000000        0.00000000        0.00000000        0.00000000
      58         -1.762506        1.000000        0.00000000        0.00000000        0.00000000
      59         -1.762119        1.000000        0.00000000        0.00000000        0.00000000
      60         -1.762053        1.000000        0.00000000        0.00000000        0.00000000
      61         -1.761895        1.000000        0.00000000        0.00000000        0.00000000
      62         -1.761602        1.000000        0.00000000        0.00000000        0.00000000
      63         -1.761509        1.000000        0.00000000        0.00000000        0.00000000
      64         -1.761377        1.000000        0.00000000        0.00000000        0.00000000
      65         -1.761171        1.000000        0.00000000        0.00000000        0.00000000
      66         -1.760998        1.000000        0.00000000        0.00000000        0.00000000
      67         -1.760877        1.000000        0.00000000        0.00000000        0.00000000
      68         -1.760806        1.000000        0.00000000        0.00000000        0.00000000
      69         -1.760684        1.000000        0.00000000        0.00000000        0.00000000
      70         -1.760645        1.000000        0.00000000        0.00000000        0.00000000
      71         -1.760442        1.000000        0.00000000        0.00000000        0.00000000
      72         -1.760098        1.000000        0.00000000        0.00000000        0.00000000
      73         -1.759962        1.000000        0.00000000        0.00000000        0.00000000
      74         -1.759824        1.000000        0.00000000        0.00000000        0.00000000
      75         -1.759787        1.000000        0.00000000        0.00000000        0.00000000
      76         -1.759638        1.000000        0.00000000        0.00000000        0.00000000
      77         -1.759601        1.000000        0.00000000        0.00000000        0.00000000
      78         -1.759512        1.000000        0.00000000        0.00000000        0.00000000
      79         -1.759406        1.000000        0.00000000        0.00000000        0.00000000
      80         -1.759287        1.000000        0.00000000        0.00000000        0.00000000
      81         -1.759176        1.000000        0.00000000        0.00000000        0.00000000
      82         -1.758872        1.000000        0.00000000        0.00000000        0.00000000
      83         -1.758781        1.000000        0.00000000        0.00000000        0.00000000
      84         -1.758726        1.000000        0.00000000        0.00000000        0.00000000
      85         -1.758559        1.000000        0.00000000        0.00000000        0.00000000
      86         -1.758378        1.000000        0.00000000        0.00000000        0.00000000
      87         -1.758294        1.000000        0.00000000        0.00000000        0.00000000
      88         -1.758087        1.000000        0.00000000        0.00000000        0.00000000
      89         -1.757987        1.000000        0.00000000        0.00000000        0.00000000
      90         -1.757734        1.000000        0.00000000        0.00000000        0.00000000
      91         -1.757649        1.000000        0.00000000        0.00000000        0.00000000
      92         -1.757529        1.000000        0.00000000        0.00000000        0.00000000
      93         -1.757404        1.000000        0.00000000        0.00000000        0.00000000
      94         -1.757324        1.000000        0.00000000        0.00000000        0.00000000
      95         -1.757187        1.000000        0.00000000        0.00000000        0.00000000
      96         -1.757137        1.000000        0.00000000        0.00000000        0.00000000
      97         -1.756770        1.000000        0.00000000        0.00000000        0.00000000
      98         -1.756598        1.000000        0.00000000        0.00000000        0.00000000
      99         -1.756513        1.000000        0.00000000        0.00000000        0.00000000
     100         -1.756186        1.000000        0.00000000        0.00000000        0.00000000
     101         -1.755847        1.000000        0.00000000        0.00000000        0.00000000
     102         -1.755716        1.000000        0.00000000        0.00000000        0.00000000
     103         -1.755306        1.000000        0.00000000        0.00000000        0.00000000
     104         -1.755052        1.000000        0.00000000        0.00000000        0.00000000
     105         -1.754765        1.000000        0.00000000        0.00000000        0.00000000
     106         -1.754094        1.000000        0.00000000        0.00000000        0.00000000
     107         -1.753681        1.000000        0.00000000        0.00000000        0.00000000
     108         -1.753548        1.000000        0.00000000        0.00000000        0.00000000
     109         -1.753256        1.000000        0.00000000        0.00000000        0.00000000
     110         -1.752675        1.000000        0.00000000        0.00000000        0.00000000
     111         -1.752502        1.000000        0.00000000        0.00000000        0.00000000
     112         -1.752253        1.000000        0.00000000        0.00000000        0.00000000
     113         -1.751643        1.000000        0.00000000        0.00000000        0.00000000
     114         -1.751317        1.000000        0.00000000        0.00000000        0.00000000
     115         -1.749193        1.000000        0.00000000        0.00000000        0.00000000
     116         -1.748137        1.000000        0.00000000        0.00000000        0.00000000
     117         -1.747283        1.000000        0.00000000        0.00000000        0.00000000
     118         -1.745962        1.000000        0.00000000        0.00000000        0.00000000
     119         -1.745880        1.000000        0.00000000        0.00000000        0.00000000
     120         -1.744143        1.000000        0.00000000        0.00000000        0.00000000
     121         -1.145318        1.000000        0.00005783        0.00000243        0.00000251
     122         -1.141162        1.000000        0.00013649        0.00000845        0.00000592
     123         -1.135518        1.000000        0.00105445        0.00002406        0.00005987
     124         -1.134356        1.000000        0.00008973        0.00002272        0.00000448
     125         -1.132797        1.000000        0.00027415        0.00006812        0.00001427
     126         -1.131675        1.000000        0.00000183        0.00007428        0.00000203
     127         -1.130657        1.000000        0.00007152        0.00000134        0.00000534
     128         -1.129329        1.000000        0.00027101        0.00028552        0.00001351
     129         -1.127805        1.000000        0.00001317        0.00028793        0.00000289
     130         -1.126970        1.000000        0.00013176        0.00000450        0.00000682
     131         -1.125100        1.000000        0.00003345        0.00008051        0.00000397
     132         -1.124640        1.000000        0.00023263        0.00001182        0.00001249
     133         -1.122028        1.000000        0.00068756        0.00029505        0.00003751
     134         -1.120887        1.000000        0.00132007        0.00014397        0.00009061
     135         -1.119308        1.000000        0.00070222        0.00004091        0.00004123
     136         -1.118408        1.000000        0.00004767        0.00002942        0.00000502
     137         -1.117769        1.000000        0.00001662        0.00023732        0.00000806
     138         -1.116570        1.000000        0.00522836        0.00015701        0.00021360
     139         -1.115096        1.000000        0.00187123        0.00012072        0.00004724
     140         -1.114402        1.000000        0.00265923        0.00025784        0.00009163
     141         -1.114039        1.000000        0.00000095        0.00000585        0.00000663
     142         -1.112381        1.000000        0.00062804        0.00154623        0.00002680
     143         -1.111588        1.000000        0.00004542        0.00033934        0.00000198
     144         -1.111356        1.000000        0.00188734        0.00006658        0.00006371
     145         -1.110913        1.000000        0.00141615        0.00010730        0.00004057
     146         -1.109631        1.000000        0.00266157        0.00047534        0.00009104
     147         -1.107338        1.000000        0.00052695        0.00001588        0.00002505
     148         -1.107163        1.000000        0.00139191        0.00007663        0.00003487
     149         -1.106911        1.000000        0.00244252        0.00010612        0.00006107
     150         -1.105904        1.000000        0.00218481        0.00012539        0.00004661
     151         -1.104513        1.000000        0.00298106        0.00011140        0.00008384
     152         -1.103753        1.000000        0.00046963        0.00004975        0.00000997
     153         -1.103233        1.000000        0.00004066        0.00017495        0.00001871
     154         -1.101116        1.000000        0.01796582        0.00052068        0.00042654
     155         -1.099878        1.000000        0.00005214        0.00074230        0.00003452
     156         -1.099527        1.000000        0.00047206        0.00047222        0.00003592
     157         -1.099360        1.000000        0.00184757        0.00021196        0.00002815
     158         -1.097449        1.000000        0.00521364        0.00014765        0.00014138
     159         -1.097246        1.000000        0.00219594        0.00021275        0.00003980
     160         -1.096336        1.000000        0.00000312        0.00032427        0.00002095
     161         -1.095776        1.000000        0.00013677        0.00002778        0.00000310
     162         -1.094258        1.000000        0.00000506        0.00005858        0.00001376
     163         -1.093701        1.000000        0.00068573        0.00006179        0.00001062
     164         -1.093107        1.000000        0.00000006        0.00007209        0.00000123
     165         -1.091600        1.000000        0.00017463        0.00022771        0.00000511
     166         -1.090890        1.000000        0.00668529        0.00050945        0.00010011
     167         -1.090283        1.000000        0.00039107        0.00007061        0.00000827
     168         -1.089378        1.000000        0.00023043        0.00002161        0.00000565
     169         -1.088506        1.000000        0.00173514        0.00008254        0.00002897
     170         -1.086931        1.000000        0.00476114        0.00008852        0.00008412
     171         -1.086367        1.000000        0.00391092        0.00009617        0.00008440
     172         -1.085327        1.000000        0.00715374        0.00092322        0.00010178
     173         -1.084766        1.000000        0.00189570        0.00014772        0.00004234
     174         -1.083961        1.000000        0.00016205        0.00014472        0.00003596
     175         -1.082920        1.000000        0.00016979        0.00046024        0.00001966
     176         -1.081700        1.000000        0.00090093        0.00002582        0.00000677
     177         -1.081031        1.000000        0.00933060        0.00032896        0.00010088
     178         -1.080558        1.000000        0.00948848        0.00015600        0.00010421
     179         -1.080415        1.000000        0.00357761        0.00009543        0.00003939
     180         -1.080047        1.000000        0.00005968        0.00004324        0.00001467
     181         -1.077309        1.000000        0.00041042        0.00048144        0.00000475
     182         -1.076601        1.000000        0.00456333        0.00107021        0.00012410
     183         -1.076342        1.000000        0.00468649        0.00024733        0.00004985
     184         -1.076154        1.000000        0.00115794        0.00002238        0.00002670
     185         -1.075469        1.000000        0.00314897        0.00005519        0.00004566
     186         -1.074904        1.000000        0.01448359        0.00043271        0.00015794
     187         -1.074160        1.000000        0.00005440        0.00070814        0.00002850
     188         -1.073364        1.000000        0.00514885        0.00141541        0.00006393
     189         -1.071841        1.000000        0.00001366        0.00006851        0.00001616
     190         -1.071436        1.000000        0.00026900        0.00001114        0.00000264
     191         -1.070358        1.000000        0.00051608        0.00091749        0.00001052
     192         -1.070160        1.000000        0.00012724        0.00049612        0.00002467
     193         -1.069551        1.000000        0.00126085        0.00076620        0.00001657
     194         -1.069042        1.000000        0.00513963        0.00007228        0.00003042
     195         -1.068018        1.000000        0.00139584        0.00092304        0.00002359
     196         -1.067683        1.000000        0.00028335        0.00000279        0.00000938
     197         -1.067094        1.000000        0.00331486        0.00006595        0.00004436
     198         -1.066200        1.000000        0.00021830        0.00001230        0.00000586
     199         -1.065105        1.000000        0.00001027        0.00001804        0.00000361
     200         -1.064600        1.000000        0.00006196        0.00003310        0.00000527
     201         -1.063825        1.000000        0.00004183        0.00000423        0.00000574
     202         -1.063672        1.000000        0.00023182        0.00008893        0.00001151
     203         -1.062915        1.000000        0.00000458        0.00013825        0.00000996
     204         -1.062259        1.000000        0.00054819        0.00010278        0.00000851
     205         -1.061986        1.000000        0.00000336        0.00020200        0.00004424
     206         -1.060822        1.000000        0.00199578        0.00001917        0.00001450
     207         -1.060230        1.000000        0.00021871        0.00000886        0.00000279
     208         -1.059971        1.000000        0.00164884        0.00003931        0.00000742
     209         -1.059399        1.000000        0.00015619        0.00001872        0.00001447
     210         -1.058798        1.000000        0.00001288        0.00000252        0.00000102
     211         -1.058498        1.000000        0.00147886        0.00005831        0.00001575
     212         -1.057049        1.000000        0.00020887        0.00000512        0.00000221
     213         -1.056896        1.000000        0.00009594        0.00000231        0.00000295
     214         -1.056403        1.000000        0.00015594        0.00002188        0.00001829
     215         -1.056079        1.000000        0.00001072        0.00000573        0.00000526
     216         -1.055624        1.000000        0.00029276        0.00000593        0.00000581
     217         -1.055288        1.000000        0.00018610        0.00001311        0.00001167
     218         -1.054828        1.000000        0.00019278        0.00003106        0.00004057
     219         -1.054413        1.000000        0.00012771        0.00004299        0.00000067
     220         -1.053990        1.000000        0.00000000        0.00013248        0.00010251
     221         -1.053598        1.000000        0.00007608        0.00002321        0.00000847
     222         -1.053387        1.000000        0.00012520        0.00003144        0.00000184
     223         -1.052953        1.000000        0.00123147        0.00004957        0.00000823
     224         -1.052779        1.000000        0.00001962        0.00002070        0.00000412
     225         -1.052376        1.000000        0.00084366        0.00006999        0.00004720
     226         -1.052297        1.000000        0.00132664        0.00023765        0.00006400
     227         -1.051819        1.000000        0.00000137        0.00000354        0.00000440
     228         -1.051536        1.000000        0.00045626        0.00001523        0.00004715
     229         -1.051232        1.000000        0.00083325        0.00003471        0.00000979
     230         -1.050581        1.000000        0.00015523        0.00000577        0.00000307
     231         -1.050140        1.000000        0.00052732        0.00000296        0.00001662
     232         -1.049834        1.000000        0.00879337        0.00023234        0.00003266
     233         -1.049588        1.000000        0.00212105        0.00009617        0.00003805
     234         -1.049506        1.000000        0.00208947        0.00010176        0.00003199
     235         -1.048565        1.000000        0.01539953        0.00040298        0.00019742
     236         -1.048103        1.000000        0.00227280        0.00006945        0.00003953
     237         -1.048023        1.000000        0.00829147        0.00013805        0.00010609
     238         -1.047651        1.000000        0.00964353        0.00035749        0.00014778
     239         -1.047305        1.000000        0.00099746        0.00006251        0.00000461
     240         -1.046707        1.000000        0.00000035        0.00005076        0.00000597
     241         -1.046592        1.000000        0.00156887        0.00011593        0.00000996
     242         -1.046281        1.000000        0.00610107        0.00013017        0.00003359
     243         -1.045974        1.000000        0.00043962        0.00000250        0.00001090
     244         -1.045866        1.000000        0.00010715        0.00013956        0.00002056
     245         -1.045771        1.000000        0.00074909        0.00004607        0.00000315
     246         -1.045301        1.000000        0.00003988        0.00000261        0.00000456
     247         -1.045020        1.000000        0.00054188        0.00005236        0.00003235
     248         -1.043956        1.000000        0.00231046        0.00005089        0.00001823
     249         -1.043818        1.000000        0.00166717        0.00001106        0.00002517
     250         -1.043244        1.000000        0.00193622        0.00001633        0.00000810
     251         -1.043119        1.000000        0.00077315        0.00000605        0.00000087
     252         -1.042993        1.000000        0.00015035        0.00000660        0.00000975
     253         -1.042515        1.000000        0.00002955        0.00000377        0.00000098
     254         -1.041302        1.000000        0.00087425        0.00001636        0.00000478
     255         -1.041116        1.000000        0.00007285        0.00003210        0.00000201
     256         -1.040594        1.000000        0.00000226        0.00004648        0.00001458
     257         -1.040094        1.000000        0.00020962        0.00003479        0.00002368
     258         -1.039599        1.000000        0.00119093        0.00001419        0.00000952
     259         -1.039408        1.000000        0.00078255        0.00002091        0.00003561
     260         -1.038970        1.000000        0.00300268        0.00014854        0.00007893
     261         -1.038561        1.000000        0.00280774        0.00002092        0.00000454
     262         -1.038022        1.000000        0.00007250        0.00000195        0.00000435
     263         -1.037841        1.000000        0.00091994        0.00001049        0.00000141
     264         -1.036991        1.000000        0.00229791        0.00005304        0.00001858
     265         -1.036854        1.000000        0.00000839        0.00003046        0.00000304
     266         -1.035910        1.000000        0.00250704        0.00003929        0.00000554
     267         -1.035115        1.000000        0.00503543        0.00010311        0.00004814
     268         -1.034275        1.000000        0.09200594        0.00094647        0.00016940
     269         -1.033697        1.000000        0.03543298        0.00028662        0.00010285
     270         -1.033444        1.000000        0.00970093        0.00011012        0.00002103
     271         -1.033385        1.000000        0.00004542        0.00000914        0.00004114
     272         -1.033262        1.000000        0.01677942        0.00012383        0.00001811
     273         -1.032346        1.000000        0.00270749        0.00003309        0.00000398
     274         -1.031626        1.000000        0.01449323        0.00011115        0.00004210
     275         -1.030746        1.000000        0.00002241        0.00000082        0.00000039
     276         -1.029780        1.000000        0.06231607        0.00048574        0.00019308
     277         -1.028980        1.000000        0.05156332        0.00051449        0.00028460
     278         -1.027492        1.000000        0.00057262        0.00000435        0.00000075
     279         -1.025795        1.000000        0.00005694        0.00000035        0.00000003
     280         -1.023990        1.000000        0.00076618        0.00001118        0.00000199
     281         -1.022755        1.000000        0.00000812        0.00000015        0.00000003
     282         -1.019871        1.000000        0.00005488        0.00000079        0.00000013
     283         -1.017737        1.000000        0.00000081        0.00000001        0.00000001
     284         -1.012409        1.000000        0.02420692        0.00113767        0.00051172
     285         -1.010522        1.000000        0.00000063        0.00000001        0.00000002
     286         -0.880961        1.000000        0.00000000        0.00000000        0.00000000
     287         -0.861761        1.000000        0.00000000        0.00000000        0.00000000
     288         -0.860652        1.000000        0.00000000        0.00000000        0.00000000
     289         -0.854811        1.000000        0.00000000        0.00000000        0.00000000
     290         -0.853189        1.000000        0.00000000        0.00000000        0.00000000
     291         -0.838407        1.000000        0.00000000        0.00000000        0.00000000
     292         -0.837131        1.000000        0.00000000        0.00000000        0.00000000
     293         -0.835422        1.000000        0.00000000        0.00000000        0.00000000
     294         -0.832873        1.000000        0.00000000        0.00000000        0.00000000
     295         -0.813092        1.000000        0.00000000        0.00000000        0.00000000
     296         -0.811309        1.000000        0.00000000        0.00000000        0.00000000
     297         -0.805633        1.000000        0.00000000        0.00000000        0.00000000
     298         -0.800994        1.000000        0.00000000        0.00000000        0.00000000
     299         -0.798544        1.000000        0.00000000        0.00000000        0.00000000
     300         -0.797176        1.000000        0.00000000        0.00000000        0.00000000
     301         -0.796065        1.000000        0.00000000        0.00000000        0.00000000
     302         -0.795247        1.000000        0.00000000        0.00000000        0.00000000
     303         -0.794465        1.000000        0.00000000        0.00000000        0.00000000
     304         -0.792558        1.000000        0.00000000        0.00000000        0.00000000
     305         -0.791532        1.000000        0.00000000        0.00000000        0.00000000
     306         -0.790931        1.000000        0.00000000        0.00000000        0.00000000
     307         -0.790366        1.000000        0.00000000        0.00000000        0.00000000