# Projected DOS for list 39 of 1 atoms, at iteration step i = 0, E(Fermi) =    -0.237583 a.u.
#     MO Eigenvalue [a.u.]      Occupation                 s                 p                 d
       1         -3.115895        1.000000        0.00000000        0.00000001        0.00000000
       2         -3.112717        1.000000        0.00000000        0.00000000        0.00000000
       3         -3.112103        1.000000        0.00000001        0.00000001        0.00000000
       4         -3.111180        1.000000        0.00000000        0.00000000        0.00000000
       5         -3.110810        1.000000        0.00000000        0.00000001        0.00000000
       6         -3.110575        1.000000        0.00000000        0.00000000        0.00000000
       7         -3.110067        1.000000        0.00000005        0.00000006        0.00000000
       8         -3.109817        1.000000        0.00000005        0.00000007        0.00000000
       9         -3.109660        1.000000        0.00000001        0.00000002        0.00000000
      10         -3.108831        1.000000        0.00000015        0.00000014        0.00000000
      11         -3.108678        1.000000        0.00000002        0.00000005        0.00000000
      12         -3.108578        1.000000        0.00000000        0.00000000        0.00000000
      13         -3.108350        1.000000        0.00000005        0.00000011        0.00000001
      14         -3.108163        1.000000        0.00000000        0.00000003        0.00000000
      15         -3.107948        1.000000        0.00000008        0.00000010        0.00000001
      16         -3.107865        1.000000        0.00000000        0.00000000        0.00000000
      17         -3.107703        1.000000        0.00000000        0.00000001        0.00000000
      18         -3.107683        1.000000        0.00000000        0.00000001        0.00000000
      19         -3.107641        1.000000        0.00000000        0.00000000        0.00000000
      20         -3.107604        1.000000        0.00000000        0.00000000        0.00000000
      21         -3.107402        1.000000        0.00000002        0.00000003        0.00000000
      22         -3.107115        1.000000        0.00000001        0.00000001        0.00000000
      23         -3.107013        1.000000        0.00000004        0.00000005        0.00000000
      24         -3.106750        1.000000        0.00000000        0.00000000        0.00000000
      25         -3.106619        1.000000        0.00000001        0.00000002        0.00000000
      26         -3.106567        1.000000        0.00000000        0.00000001        0.00000000
      27         -3.106546        1.000000        0.00000000        0.00000000        0.00000000
      28         -3.106258        1.000000        0.00000000        0.00000001        0.00000000
      29         -3.106103        1.000000        0.00000000        0.00000000        0.00000000
      30         -3.104674        1.000000        0.00000001        0.00000002        0.00000000
      31         -1.775522        1.000000        0.00000000        0.00000000        0.00000000
      32         -1.773964        1.000000        0.00000000        0.00000000        0.00000000
      33         -1.773454        1.000000        0.00000000        0.00000000        0.00000000
      34         -1.773008        1.000000        0.00000000        0.00000000        0.00000000
      35         -1.772581        1.000000        0.00000000        0.00000000        0.00000000
      36         -1.772213        1.000000        0.00000000        0.00000000        0.00000000
      37         -1.771852        1.000000        0.00000000        0.00000000        0.00000000
      38         -1.771444        1.000000        0.00000000        0.00000000        0.00000000
      39         -1.771233        1.000000        0.00000000        0.00000000        0.00000000
      40         -1.770977        1.000000        0.00000000        0.00000000        0.00000000
      41         -1.770760        1.000000        0.00000000        0.00000000        0.00000000
      42         -1.770111        1.000000        0.00000000        0.00000000        0.00000000
      43         -1.770034        1.000000        0.00000000        0.00000000        0.00000000
      44         -1.769495        1.000000        0.00000000        0.00000000        0.00000000
      45         -1.769421        1.000000        0.00000000        0.00000000        0.00000000
      46         -1.769063        1.000000        0.00000000        0.00000000        0.00000000
      47         -1.768532        1.000000        0.00000000        0.00000000        0.00000000
      48         -1.768412        1.000000        0.00000000        0.00000000        0.00000000
      49         -1.767811        1.000000        0.00000000        0.00000000        0.00000000
      50         -1.767614        1.000000        0.00000000        0.00000000        0.00000000
      51         -1.767477        1.000000        0.00000000        0.00000000        0.00000000
      52         -1.765531        1.000000        0.00000000        0.00000000        0.00000000
      53         -1.765088        1.000000        0.00000000        0.00000000        0.00000000
      54         -1.764557        1.000000        0.00000000        0.00000000        0.00000000
      55         -1.763772        1.000000        0.00000000        0.00000000        0.00000000
      56         -1.763328        1.000000        0.00000000        0.00000000        0.00000000
      57         -1.762925        1.000000        0.00000000        0.00000000        0.00000000
      58         -1.762506        1.000000        0.00000000        0.00000000        0.00000000
      59         -1.762119        1.000000        0.00000000        0.00000000        0.00000000
      60         -1.762053        1.000000        0.00000000        0.00000000        0.00000000
      61         -1.761895        1.000000        0.00000000        0.00000000        0.00000000
      62         -1.761602        1.000000        0.00000000        0.00000000        0.00000000
      63         -1.761509        1.000000        0.00000000        0.00000000        0.00000000
      64         -1.761377        1.000000        0.00000000        0.00000000        0.00000000
      65         -1.761171        1.000000        0.00000000        0.00000000        0.00000000
      66         -1.760998        1.000000        0.00000000        0.00000000        0.00000000
      67         -1.760877        1.000000        0.00000000        0.00000000        0.00000000
      68         -1.760806        1.000000        0.00000000        0.00000000        0.00000000
      69         -1.760684        1.000000        0.00000000        0.00000000        0.00000000
      70         -1.760645        1.000000        0.00000000        0.00000000        0.00000000
      71         -1.760442        1.000000        0.00000000        0.00000000        0.00000000
      72         -1.760098        1.000000        0.00000000        0.00000000        0.00000000
      73         -1.759962        1.000000        0.00000000        0.00000000        0.00000000
      74         -1.759824        1.000000        0.00000000        0.00000000        0.00000000
      75         -1.759787        1.000000        0.00000000        0.00000000        0.00000000
      76         -1.759638        1.000000        0.00000000        0.00000000        0.00000000
      77         -1.759601        1.000000        0.00000000        0.00000000        0.00000000
      78         -1.759512        1.000000        0.00000000        0.00000000        0.00000000
      79         -1.759406        1.000000        0.00000000        0.00000000        0.00000000
      80         -1.759287        1.000000        0.00000000        0.00000000        0.00000000
      81         -1.759176        1.000000        0.00000000        0.00000000        0.00000000
      82         -1.758872        1.000000        0.00000000        0.00000000        0.00000000
      83         -1.758781        1.000000        0.00000000        0.00000000        0.00000000
      84         -1.758726        1.000000        0.00000000        0.00000000        0.00000000
      85         -1.758559        1.000000        0.00000000        0.00000000        0.00000000
      86         -1.758378        1.000000        0.00000000        0.00000000        0.00000000
      87         -1.758294        1.000000        0.00000000        0.00000000        0.00000000
      88         -1.758087        1.000000        0.00000000        0.00000000        0.00000000
      89         -1.757987        1.000000        0.00000000        0.00000000        0.00000000
      90         -1.757734        1.000000        0.00000000        0.00000000        0.00000000
      91         -1.757649        1.000000        0.00000000        0.00000000        0.00000000
      92         -1.757529        1.000000        0.00000000        0.00000000        0.00000000
      93         -1.757404        1.000000        0.00000000        0.00000000        0.00000000
      94         -1.757324        1.000000        0.00000000        0.00000000        0.00000000
      95         -1.757187        1.000000        0.00000000        0.00000000        0.00000000
      96         -1.757137        1.000000        0.00000000        0.00000000        0.00000000
      97         -1.756770        1.000000        0.00000000        0.00000000        0.00000000
      98         -1.756598        1.000000        0.00000000        0.00000000        0.00000000
      99         -1.756513        1.000000        0.00000000        0.00000000        0.00000000
     100         -1.756186        1.000000        0.00000000        0.00000000        0.00000000
     101         -1.755847        1.000000        0.00000000        0.00000000        0.00000000
     102         -1.755716        1.000000        0.00000000        0.00000000        0.00000000
     103         -1.755306        1.000000        0.00000000        0.00000000        0.00000000
     104         -1.755052        1.000000        0.00000000        0.00000000        0.00000000
     105         -1.754765        1.000000        0.00000000        0.00000000        0.00000000
     106         -1.754094        1.000000        0.00000000        0.00000000        0.00000000
     107         -1.753681        1.000000        0.00000000        0.00000000        0.00000000
     108         -1.753548        1.000000        0.00000000        0.00000000        0.00000000
     109         -1.753256        1.000000        0.00000000        0.00000000        0.00000000
     110         -1.752675        1.000000        0.00000000        0.00000000        0.00000000
     111         -1.752502        1.000000        0.00000000        0.00000000        0.00000000
     112         -1.752253        1.000000        0.00000000        0.00000000        0.00000000
     113         -1.751643        1.000000        0.00000000        0.00000000        0.00000000
     114         -1.751317        1.000000        0.00000000        0.00000000        0.00000000
     115         -1.749193        1.000000        0.00000000        0.00000000        0.00000000
     116         -1.748137        1.000000        0.00000000        0.00000000        0.00000000
     117         -1.747283        1.000000        0.00000000        0.00000000        0.00000000
     118         -1.745962        1.000000        0.00000000        0.00000000        0.00000000
     119         -1.745880        1.000000        0.00000000        0.00000000        0.00000000
     120         -1.744143        1.000000        0.00000000        0.00000000        0.00000000
     121         -1.145318        1.000000        0.00010083        0.00006128        0.00001048
     122         -1.141162        1.000000        0.00033276        0.00026690        0.00005184
     123         -1.135518        1.000000        0.00073470        0.00043700        0.00011723
     124         -1.134356        1.000000        0.00004878        0.00006811        0.00001793
     125         -1.132797        1.000000        0.00003648        0.00010275        0.00001929
     126         -1.131675        1.000000        0.00020734        0.00014257        0.00002924
     127         -1.130657        1.000000        0.00006128        0.00004245        0.00001219
     128         -1.129329        1.000000        0.00052210        0.00047458        0.00015471
     129         -1.127805        1.000000        0.00058875        0.00070098        0.00018932
     130         -1.126970        1.000000        0.00035483        0.00101007        0.00020042
     131         -1.125100        1.000000        0.00178297        0.00063000        0.00023365
     132         -1.124640        1.000000        0.00012081        0.00001908        0.00001123
     133         -1.122028        1.000000        0.00096169        0.00032395        0.00012104
     134         -1.120887        1.000000        0.00071623        0.00139560        0.00032774
     135         -1.119308        1.000000        0.00198147        0.00524481        0.00100712
     136         -1.118408        1.000000        0.00106883        0.00306995        0.00074670
     137         -1.117769        1.000000        0.00005904        0.00231414        0.00054403
     138         -1.116570        1.000000        0.01127686        0.00209606        0.00115729
     139         -1.115096        1.000000        0.00094027        0.00156575        0.00051944
     140         -1.114402        1.000000        0.00016567        0.00015166        0.00002394
     141         -1.114039        1.000000        0.00057299        0.00122878        0.00029094
     142         -1.112381        1.000000        0.00117464        0.00363789        0.00094239
     143         -1.111588        1.000000        0.00329470        0.00105219        0.00053855
     144         -1.111356        1.000000        0.00000182        0.00012297        0.00004418
     145         -1.110913        1.000000        0.00003625        0.00194712        0.00053180
     146         -1.109631        1.000000        0.00241481        0.00089653        0.00021645
     147         -1.107338        1.000000        0.00097699        0.00062650        0.00014200
     148         -1.107163        1.000000        0.00005447        0.00016625        0.00005093
     149         -1.106911        1.000000        0.00448080        0.00062740        0.00011155
     150         -1.105904        1.000000        0.00108791        0.00039006        0.00011237
     151         -1.104513        1.000000        0.00032186        0.00136674        0.00054854
     152         -1.103753        1.000000        0.00097615        0.00358703        0.00138431
     153         -1.103233        1.000000        0.00092673        0.00036487        0.00015690
     154         -1.101116        1.000000        0.00004572        0.00220061        0.00061060
     155         -1.099878        1.000000        0.00122249        0.00149097        0.00045906
     156         -1.099527        1.000000        0.00000041        0.00150212        0.00049470
     157         -1.099360        1.000000        0.00000196        0.00139392        0.00034781
     158         -1.097449        1.000000        0.00055543        0.00256095        0.00065454
     159         -1.097246        1.000000        0.00459920        0.00029493        0.00023542
     160         -1.096336        1.000000        0.00012723        0.00042359        0.00010627
     161         -1.095776        1.000000        0.00059851        0.00023181        0.00009542
     162         -1.094258        1.000000        0.00886372        0.00109809        0.00086231
     163         -1.093701        1.000000        0.00071882        0.00073563        0.00015176
     164         -1.093107        1.000000        0.00125067        0.00016945        0.00010556
     165         -1.091600        1.000000        0.00042242        0.00038741        0.00011135
     166         -1.090890        1.000000        0.00154228        0.00020282        0.00003255
     167         -1.090283        1.000000        0.00051262        0.00017940        0.00010793
     168         -1.089378        1.000000        0.00880550        0.00299860        0.00132480
     169         -1.088506        1.000000        0.00418567        0.00150610        0.00056968
     170         -1.086931        1.000000        0.00489045        0.00159470        0.00060356
     171         -1.086367        1.000000        0.00021458        0.00180149        0.00055910
     172         -1.085327        1.000000        0.00000266        0.00169399        0.00053546
     173         -1.084766        1.000000        0.00000698        0.00077249        0.00027934
     174         -1.083961        1.000000        0.00052029        0.00022455        0.00007040
     175         -1.082920        1.000000        0.00108990        0.00088828        0.00050545
     176         -1.081700        1.000000        0.00017142        0.00040192        0.00010818
     177         -1.081031        1.000000        0.00354095        0.00149521        0.00080301
     178         -1.080558        1.000000        0.00669066        0.00043368        0.00032844
     179         -1.080415        1.000000        0.00052093        0.00018093        0.00010188
     180         -1.080047        1.000000        0.00412473        0.00038203        0.00024655
     181         -1.077309        1.000000        0.00329510        0.00068796        0.00048037
     182         -1.076601        1.000000        0.00122636        0.00075637        0.00024081
     183         -1.076342        1.000000        0.00095231        0.00068742        0.00018415
     184         -1.076154        1.000000        0.01460046        0.00147476        0.00114439
     185         -1.075469        1.000000        0.00414047        0.00175053        0.00057865
     186         -1.074904        1.000000        0.00040334        0.00080594        0.00027906
     187         -1.074160        1.000000        0.00107741        0.00098432        0.00028688
     188         -1.073364        1.000000        0.00025424        0.00021805        0.00008829
     189         -1.071841        1.000000        0.00068818        0.00085072        0.00028124
     190         -1.071436        1.000000        0.00000210        0.00000913        0.00000260
     191         -1.070358        1.000000        0.00142517        0.00037441        0.00018271
     192         -1.070160        1.000000        0.00019253        0.00092182        0.00043662
     193         -1.069551        1.000000        0.00006061        0.00004718        0.00002008
     194         -1.069042        1.000000        0.00065075        0.00054276        0.00023826
     195         -1.068018        1.000000        0.00029483        0.00048240        0.00016792
     196         -1.067683        1.000000        0.00032606        0.00046221        0.00020536
     197         -1.067094        1.000000        0.00004745        0.00124126        0.00048221
     198         -1.066200        1.000000        0.00085967        0.00110741        0.00045788
     199         -1.065105        1.000000        0.00108150        0.00170810        0.00061290
     200         -1.064600        1.000000        0.00025472        0.00059030        0.00021011
     201         -1.063825        1.000000        0.00018522        0.00027445        0.00018568
     202         -1.063672        1.000000        0.00025269        0.00166186        0.00053840
     203         -1.062915        1.000000        0.00016875        0.00169956        0.00055774
     204         -1.062259        1.000000        0.00010953        0.00031405        0.00013833
     205         -1.061986        1.000000        0.00040984        0.00268710        0.00104021
     206         -1.060822        1.000000        0.00016579        0.00263113        0.00079281
     207         -1.060230        1.000000        0.00012927        0.00042193        0.00016464
     208         -1.059971        1.000000        0.00033547        0.00239397        0.00101033
     209         -1.059399        1.000000        0.00007377        0.00065168        0.00025083
     210         -1.058798        1.000000        0.00005120        0.00002693        0.00001776
     211         -1.058498        1.000000        0.00001500        0.00235714        0.00065426
     212         -1.057049        1.000000        0.00001616        0.00086865        0.00023038
     213         -1.056896        1.000000        0.00004228        0.00016683        0.00003939
     214         -1.056403        1.000000        0.00012275        0.00006963        0.00003606
     215         -1.056079        1.000000        0.00000299        0.00001703        0.00000829
     216         -1.055624        1.000000        0.00005226        0.00004667        0.00003555
     217         -1.055288        1.000000        0.00000680        0.00003579        0.00001858
     218         -1.054828        1.000000        0.00000052        0.00095325        0.00028686
     219         -1.054413        1.000000        0.00001165        0.00055622        0.00018139
     220         -1.053990        1.000000        0.00000403        0.00377251        0.00121361
     221         -1.053598        1.000000        0.00002246        0.00011079        0.00004835
     222         -1.053387        1.000000        0.00000648        0.00008775        0.00002788
     223         -1.052953        1.000000        0.00000254        0.00013317        0.00007942
     224         -1.052779        1.000000        0.00001739        0.00014798        0.00005971
     225         -1.052376        1.000000        0.00006608        0.00090748        0.00029020
     226         -1.052297        1.000000        0.00000674        0.00116051        0.00047170
     227         -1.051819        1.000000        0.00000250        0.00043934        0.00014074
     228         -1.051536        1.000000        0.00007557        0.04547961        0.01492045
     229         -1.051232        1.000000        0.00000100        0.00145807        0.00057430
     230         -1.050581        1.000000        0.00000112        0.00930009        0.00306946
     231         -1.050140        1.000000        0.00004744        0.00623042        0.00202907
     232         -1.049834        1.000000        0.00001327        0.00209089        0.00081849
     233         -1.049588        1.000000        0.00000014        0.00094855        0.00036219
     234         -1.049506        1.000000        0.00001271        0.00024962        0.00006853
     235         -1.048565        1.000000        0.00003234        0.01069581        0.00422654
     236         -1.048103        1.000000        0.00017448        0.01027328        0.00393279
     237         -1.048023        1.000000        0.00016766        0.00473229        0.00188962
     238         -1.047651        1.000000        0.00002749        0.00108276        0.00040939
     239         -1.047305        1.000000        0.00016596        0.00488469        0.00192113
     240         -1.046707        1.000000        0.00007399        0.00788331        0.00325559
     241         -1.046592        1.000000        0.00005297        0.00523538        0.00216562
     242         -1.046281        1.000000        0.00000025        0.00003295        0.00001331
     243         -1.045974        1.000000        0.00000355        0.00034805        0.00016807
     244         -1.045866        1.000000        0.00003217        0.00811047        0.00323709
     245         -1.045771        1.000000        0.00005011        0.01046818        0.00406888
     246         -1.045301        1.000000        0.00002796        0.00260144        0.00104570
     247         -1.045020        1.000000        0.00038673        0.04628897        0.01866376
     248         -1.043956        1.000000        0.00000530        0.00032210        0.00012391
     249         -1.043818        1.000000        0.00000596        0.00207689        0.00098415
     250         -1.043244        1.000000        0.00000835        0.00166317        0.00070881
     251         -1.043119        1.000000        0.00000122        0.00055308        0.00024447
     252         -1.042993        1.000000        0.00000006        0.00096196        0.00043010
     253         -1.042515        1.000000        0.00005036        0.00233477        0.00086027
     254         -1.041302        1.000000        0.00000680        0.00224147        0.00110476
     255         -1.041116        1.000000        0.00001169        0.00753261        0.00376175
     256         -1.040594        1.000000        0.00000032        0.00027916        0.00015001
     257         -1.040094        1.000000        0.00013288        0.00624512        0.00260881
     258         -1.039599        1.000000        0.00000019        0.00619982        0.00249527
     259         -1.039408        1.000000        0.00003255        0.01164993        0.00491811
     260         -1.038970        1.000000        0.00000298        0.00218937        0.00106563
     261         -1.038561        1.000000        0.00000341        0.00026376        0.00016203
     262         -1.038022        1.000000        0.00000130        0.00008013        0.00004244
     263         -1.037841        1.000000        0.00002146        0.00183628        0.00079086
     264         -1.036991        1.000000        0.00000223        0.00054147        0.00028887
     265         -1.036854        1.000000        0.00002047        0.00127901        0.00077036
     266         -1.035910        1.000000        0.00000259        0.00002511        0.00001089
     267         -1.035115        1.000000        0.00000195        0.00009496        0.00003707
     268         -1.034275        1.000000        0.00002014        0.00019157        0.00006220
     269         -1.033697        1.000000        0.00001840        0.00041973        0.00015939
     270         -1.033444        1.000000        0.00007669        0.00389207        0.00151260
     271         -1.033385        1.000000        0.00003298        0.00398349        0.00154842
     272         -1.033262        1.000000        0.00000206        0.00010652        0.00003300
     273         -1.032346        1.000000        0.00011008        0.01039644        0.00381216
     274         -1.031626        1.000000        0.00000287        0.00014518        0.00005239
     275         -1.030746        1.000000        0.00000001        0.00000132        0.00000054
     276         -1.029780        1.000000        0.00000305        0.00007458        0.00002692
     277         -1.028980        1.000000        0.00000982        0.00016669        0.00006112
     278         -1.027492        1.000000        0.00044359        0.01118971        0.00523666
     279         -1.025795        1.000000        0.00001070        0.00025554        0.00007109
     280         -1.023990        1.000000        0.00255176        0.08480481        0.03998240
     281         -1.022755        1.000000        0.00000479        0.00023592        0.00012096
     282         -1.019871        1.000000        0.00000000        0.00000035        0.00000018
     283         -1.017737        1.000000        0.00000247        0.00002132        0.00000774
     284         -1.012409        1.000000        0.00002163        0.00048690        0.00020290
     285         -1.010522        1.000000        0.00000000        0.00000008        0.00000003
     286         -0.880961        1.000000        0.00000096        0.00000090        0.00000005
     287         -0.861761        1.000000        0.00000039        0.00000047        0.00000005
     288         -0.860652        1.000000        0.00000006        0.00000018        0.00000001
     289         -0.854811        1.000000        0.00000004        0.00000006        0.00000000
     290         -0.853189        1.000000        0.00000002        0.00000014        0.00000001
     291         -0.838407        1.000000        0.00000000        0.00000009        0.00000001
     292         -0.837131        1.000000        0.00000009        0.00000013        0.00000001
     293         -0.835422        1.000000        0.00000013        0.00000018        0.00000002
     294         -0.832873        1.000000        0.00000001        0.00000003        0.00000000
     295         -0.813092        1.000000        0.00000003        0.00000010        0.00000002
     296         -0.811309        1.000000        0.00000003        0.00000005        0.00000001
     297         -0.805633        1.000000        0.00000065        0.00000053        0.00000002
     298         -0.800994        1.000000        0.00000069        0.00000070        0.00000007
     299         -0.798544        1.000000        0.00000014        0.00000016        0.00000000
     300         -0.797176        1.000000        0.00000008        0.00000008        0.00000001
     301         -0.796065        1.000000        0.00000000        0.00000001        0.00000000
     302         -0.795247        1.000000        0.00000002        0.00000003        0.00000000
     303         -0.794465        1.000000        0.00000002        0.00000003        0.00000000
     304         -0.792558        1.000000        0.00000001        0.00000001        0.00000001
     305         -0.791532        1.000000        0.00000002        0.00000004        0.00000000
     306         -0.790931        1.000000        0.00000002        0.00000001        0.00000000
     307         -0.790366        1.000000        0.00000000        0.00000003        0.00000000