# Projected DOS for list 90 of 1 atoms, at iteration step i = 0, E(Fermi) =    -0.237583 a.u.
#     MO Eigenvalue [a.u.]      Occupation                 s                 p                 d
       1         -3.115895        1.000000        0.00000000        0.00000000        0.00000000
       2         -3.112717        1.000000        0.00000000        0.00000000        0.00000000
       3         -3.112103        1.000000        0.00000000        0.00000000        0.00000000
       4         -3.111180        1.000000        0.00000000        0.00000000        0.00000000
       5         -3.110810        1.000000        0.00000000        0.00000000        0.00000000
       6         -3.110575        1.000000        0.00000000        0.00000000        0.00000000
       7         -3.110067        1.000000        0.00000000        0.00000000        0.00000000
       8         -3.109817        1.000000        0.00000000        0.00000000        0.00000000
       9         -3.109660        1.000000        0.00000000        0.00000000        0.00000000
      10         -3.108831        1.000000        0.00000000        0.00000000        0.00000000
      11         -3.108678        1.000000        0.00000000        0.00000000        0.00000000
      12         -3.108578        1.000000        0.00000000        0.00000000        0.00000000
      13         -3.108350        1.000000        0.00000000        0.00000000        0.00000000
      14         -3.108163        1.000000        0.00000000        0.00000000        0.00000000
      15         -3.107948        1.000000        0.00000000        0.00000000        0.00000000
      16         -3.107865        1.000000        0.00000000        0.00000000        0.00000000
      17         -3.107703        1.000000        0.00000000        0.00000000        0.00000000
      18         -3.107683        1.000000        0.00000000        0.00000000        0.00000000
      19         -3.107641        1.000000        0.00000000        0.00000000        0.00000000
      20         -3.107604        1.000000        0.00000000        0.00000000        0.00000000
      21         -3.107402        1.000000        0.00000000        0.00000000        0.00000000
      22         -3.107115        1.000000        0.00000000        0.00000000        0.00000000
      23         -3.107013        1.000000        0.00000000        0.00000000        0.00000000
      24         -3.106750        1.000000        0.00000000        0.00000000        0.00000000
      25         -3.106619        1.000000        0.00000000        0.00000000        0.00000000
      26         -3.106567        1.000000        0.00000000        0.00000000        0.00000000
      27         -3.106546        1.000000        0.00000000        0.00000000        0.00000000
      28         -3.106258        1.000000        0.00000000        0.00000000        0.00000000
      29         -3.106103        1.000000        0.00000000        0.00000000        0.00000000
      30         -3.104674        1.000000        0.00000000        0.00000000        0.00000000
      31         -1.775522        1.000000        0.00000000        0.00000000        0.00000000
      32         -1.773964        1.000000        0.00000000        0.00000000        0.00000000
      33         -1.773454        1.000000        0.00000000        0.00000000        0.00000000
      34         -1.773008        1.000000        0.00000000        0.00000000        0.00000000
      35         -1.772581        1.000000        0.00000000        0.00000000        0.00000000
      36         -1.772213        1.000000        0.00000000        0.00000000        0.00000000
      37         -1.771852        1.000000        0.00000000        0.00000000        0.00000000
      38         -1.771444        1.000000        0.00000000        0.00000000        0.00000000
      39         -1.771233        1.000000        0.00000000        0.00000000        0.00000000
      40         -1.770977        1.000000        0.00000000        0.00000000        0.00000000
      41         -1.770760        1.000000        0.00000000        0.00000000        0.00000000
      42         -1.770111        1.000000        0.00000000        0.00000000        0.00000000
      43         -1.770034        1.000000        0.00000000        0.00000000        0.00000000
      44         -1.769495        1.000000        0.00000000        0.00000000        0.00000000
      45         -1.769421        1.000000        0.00000000        0.00000000        0.00000000
      46         -1.769063        1.000000        0.00000000        0.00000000        0.00000000
      47         -1.768532        1.000000        0.00000000        0.00000000        0.00000000
      48         -1.768412        1.000000        0.00000000        0.00000000        0.00000000
      49         -1.767811        1.000000        0.00000000        0.00000000        0.00000000
      50         -1.767614        1.000000        0.00000000        0.00000000        0.00000000
      51         -1.767477        1.000000        0.00000000        0.00000000        0.00000000
      52         -1.765531        1.000000        0.00000000        0.00000000        0.00000000
      53         -1.765088        1.000000        0.00000000        0.00000000        0.00000000
      54         -1.764557        1.000000        0.00000000        0.00000000        0.00000000
      55         -1.763772        1.000000        0.00000000        0.00000000        0.00000000
      56         -1.763328        1.000000        0.00000000        0.00000000        0.00000000
      57         -1.762925        1.000000        0.00000000        0.00000000        0.00000000
      58         -1.762506        1.000000        0.00000000        0.00000000        0.00000000
      59         -1.762119        1.000000        0.00000000        0.00000000        0.00000000
      60         -1.762053        1.000000        0.00000000        0.00000000        0.00000000
      61         -1.761895        1.000000        0.00000000        0.00000000        0.00000000
      62         -1.761602        1.000000        0.00000000        0.00000000        0.00000000
      63         -1.761509        1.000000        0.00000000        0.00000000        0.00000000
      64         -1.761377        1.000000        0.00000000        0.00000000        0.00000000
      65         -1.761171        1.000000        0.00000000        0.00000000        0.00000000
      66         -1.760998        1.000000        0.00000000        0.00000000        0.00000000
      67         -1.760877        1.000000        0.00000000        0.00000000        0.00000000
      68         -1.760806        1.000000        0.00000000        0.00000000        0.00000000
      69         -1.760684        1.000000        0.00000000        0.00000000        0.00000000
      70         -1.760645        1.000000        0.00000000        0.00000000        0.00000000
      71         -1.760442        1.000000        0.00000000        0.00000000        0.00000000
      72         -1.760098        1.000000        0.00000000        0.00000000        0.00000000
      73         -1.759962        1.000000        0.00000000        0.00000000        0.00000000
      74         -1.759824        1.000000        0.00000000        0.00000000        0.00000000
      75         -1.759787        1.000000        0.00000000        0.00000000        0.00000000
      76         -1.759638        1.000000        0.00000000        0.00000000        0.00000000
      77         -1.759601        1.000000        0.00000000        0.00000000        0.00000000
      78         -1.759512        1.000000        0.00000000        0.00000000        0.00000000
      79         -1.759406        1.000000        0.00000000        0.00000000        0.00000000
      80         -1.759287        1.000000        0.00000000        0.00000000        0.00000000
      81         -1.759176        1.000000        0.00000000        0.00000000        0.00000000
      82         -1.758872        1.000000        0.00000000        0.00000000        0.00000000
      83         -1.758781        1.000000        0.00000000        0.00000000        0.00000000
      84         -1.758726        1.000000        0.00000000        0.00000000        0.00000000
      85         -1.758559        1.000000        0.00000000        0.00000000        0.00000000
      86         -1.758378        1.000000        0.00000000        0.00000000        0.00000000
      87         -1.758294        1.000000        0.00000000        0.00000000        0.00000000
      88         -1.758087        1.000000        0.00000000        0.00000000        0.00000000
      89         -1.757987        1.000000        0.00000000        0.00000000        0.00000000
      90         -1.757734        1.000000        0.00000000        0.00000000        0.00000000
      91         -1.757649        1.000000        0.00000000        0.00000000        0.00000000
      92         -1.757529        1.000000        0.00000000        0.00000000        0.00000000
      93         -1.757404        1.000000        0.00000000        0.00000000        0.00000000
      94         -1.757324        1.000000        0.00000000        0.00000000        0.00000000
      95         -1.757187        1.000000        0.00000000        0.00000000        0.00000000
      96         -1.757137        1.000000        0.00000000        0.00000000        0.00000000
      97         -1.756770        1.000000        0.00000000        0.00000000        0.00000000
      98         -1.756598        1.000000        0.00000000        0.00000000        0.00000000
      99         -1.756513        1.000000        0.00000000        0.00000000        0.00000000
     100         -1.756186        1.000000        0.00000000        0.00000000        0.00000000
     101         -1.755847        1.000000        0.00000000        0.00000000        0.00000000
     102         -1.755716        1.000000        0.00000000        0.00000000        0.00000000
     103         -1.755306        1.000000        0.00000000        0.00000000        0.00000000
     104         -1.755052        1.000000        0.00000000        0.00000000        0.00000000
     105         -1.754765        1.000000        0.00000000        0.00000000        0.00000000
     106         -1.754094        1.000000        0.00000000        0.00000000        0.00000000
     107         -1.753681        1.000000        0.00000000        0.00000000        0.00000000
     108         -1.753548        1.000000        0.00000000        0.00000000        0.00000000
     109         -1.753256        1.000000        0.00000000        0.00000000        0.00000000
     110         -1.752675        1.000000        0.00000000        0.00000000        0.00000000
     111         -1.752502        1.000000        0.00000000        0.00000000        0.00000000
     112         -1.752253        1.000000        0.00000000        0.00000000        0.00000000
     113         -1.751643        1.000000        0.00000000        0.00000000        0.00000000
     114         -1.751317        1.000000        0.00000000        0.00000000        0.00000000
     115         -1.749193        1.000000        0.00000000        0.00000000        0.00000000
     116         -1.748137        1.000000        0.00000000        0.00000000        0.00000000
     117         -1.747283        1.000000        0.00000000        0.00000000        0.00000000
     118         -1.745962        1.000000        0.00000000        0.00000000        0.00000000
     119         -1.745880        1.000000        0.00000000        0.00000000        0.00000000
     120         -1.744143        1.000000        0.00000000        0.00000000        0.00000000
     121         -1.145318        1.000000        0.00823700        0.00157461        0.00035161
     122         -1.141162        1.000000        0.00153227        0.00070239        0.00008503
     123         -1.135518        1.000000        0.00036401        0.00025539        0.00001870
     124         -1.134356        1.000000        0.00002133        0.00008435        0.00000634
     125         -1.132797        1.000000        0.00229287        0.00024760        0.00007794
     126         -1.131675        1.000000        0.00226192        0.00011845        0.00005746
     127         -1.130657        1.000000        0.00133453        0.00041903        0.00005036
     128         -1.129329        1.000000        0.00732749        0.00024767        0.00020653
     129         -1.127805        1.000000        0.00867052        0.00081373        0.00024485
     130         -1.126970        1.000000        0.00004881        0.00015181        0.00000558
     131         -1.125100        1.000000        0.00032137        0.00037708        0.00001809
     132         -1.124640        1.000000        0.01145498        0.00068852        0.00036030
     133         -1.122028        1.000000        0.00001434        0.00036866        0.00000768
     134         -1.120887        1.000000        0.00136332        0.00075329        0.00005614
     135         -1.119308        1.000000        0.00497043        0.00023290        0.00008721
     136         -1.118408        1.000000        0.00002741        0.00003321        0.00000784
     137         -1.117769        1.000000        0.00305844        0.00012467        0.00006193
     138         -1.116570        1.000000        0.00112975        0.00006355        0.00002647
     139         -1.115096        1.000000        0.00000649        0.00017191        0.00002135
     140         -1.114402        1.000000        0.00036532        0.00033692        0.00005310
     141         -1.114039        1.000000        0.00339891        0.00088721        0.00011006
     142         -1.112381        1.000000        0.00079981        0.00083246        0.00004530
     143         -1.111588        1.000000        0.00008523        0.00000145        0.00000853
     144         -1.111356        1.000000        0.01251947        0.00022746        0.00025849
     145         -1.110913        1.000000        0.00040476        0.00076661        0.00003098
     146         -1.109631        1.000000        0.00887897        0.00121037        0.00018518
     147         -1.107338        1.000000        0.00098095        0.00015724        0.00003532
     148         -1.107163        1.000000        0.00045723        0.00007405        0.00003193
     149         -1.106911        1.000000        0.00530824        0.00051389        0.00010083
     150         -1.105904        1.000000        0.00065989        0.00144379        0.00002485
     151         -1.104513        1.000000        0.01079594        0.00018867        0.00014687
     152         -1.103753        1.000000        0.00497115        0.00010287        0.00006454
     153         -1.103233        1.000000        0.00386735        0.00036653        0.00006175
     154         -1.101116        1.000000        0.00021497        0.00005920        0.00001333
     155         -1.099878        1.000000        0.00011839        0.00009944        0.00001318
     156         -1.099527        1.000000        0.00029431        0.00002677        0.00002716
     157         -1.099360        1.000000        0.00036945        0.00006533        0.00000763
     158         -1.097449        1.000000        0.00211224        0.00029332        0.00003240
     159         -1.097246        1.000000        0.00144848        0.00009294        0.00003202
     160         -1.096336        1.000000        0.00231103        0.00004769        0.00001529
     161         -1.095776        1.000000        0.00030562        0.00002290        0.00000648
     162         -1.094258        1.000000        0.00074328        0.00001997        0.00002852
     163         -1.093701        1.000000        0.00103385        0.00006419        0.00003636
     164         -1.093107        1.000000        0.00349650        0.00010442        0.00004373
     165         -1.091600        1.000000        0.00077177        0.00005795        0.00004360
     166         -1.090890        1.000000        0.00022731        0.00173613        0.00007927
     167         -1.090283        1.000000        0.00032502        0.00024576        0.00001432
     168         -1.089378        1.000000        0.00356415        0.00010672        0.00002526
     169         -1.088506        1.000000        0.00000781        0.00034057        0.00001623
     170         -1.086931        1.000000        0.00013952        0.00023328        0.00003127
     171         -1.086367        1.000000        0.00163374        0.00006359        0.00000747
     172         -1.085327        1.000000        0.00288556        0.00013063        0.00000781
     173         -1.084766        1.000000        0.00032851        0.00011023        0.00001171
     174         -1.083961        1.000000        0.00032572        0.00008565        0.00000477
     175         -1.082920        1.000000        0.00185638        0.00123387        0.00004414
     176         -1.081700        1.000000        0.00384829        0.00046852        0.00014270
     177         -1.081031        1.000000        0.01128729        0.00088551        0.00016751
     178         -1.080558        1.000000        0.00028173        0.00013816        0.00001536
     179         -1.080415        1.000000        0.01662816        0.00069195        0.00012258
     180         -1.080047        1.000000        0.00119878        0.00001621        0.00003566
     181         -1.077309        1.000000        0.00003046        0.00002423        0.00002325
     182         -1.076601        1.000000        0.00037521        0.00002245        0.00001344
     183         -1.076342        1.000000        0.00000110        0.00021397        0.00002960
     184         -1.076154        1.000000        0.00030583        0.00001976        0.00000462
     185         -1.075469        1.000000        0.00227689        0.00012092        0.00003762
     186         -1.074904        1.000000        0.00036668        0.00012769        0.00004343
     187         -1.074160        1.000000        0.00014537        0.00031471        0.00003328
     188         -1.073364        1.000000        0.00036400        0.00006371        0.00003297
     189         -1.071841        1.000000        0.00086918        0.00003261        0.00003411
     190         -1.071436        1.000000        0.01343701        0.00048169        0.00009103
     191         -1.070358        1.000000        0.00000661        0.00004703        0.00000702
     192         -1.070160        1.000000        0.00004817        0.00000361        0.00002063
     193         -1.069551        1.000000        0.00027558        0.00002578        0.00003671
     194         -1.069042        1.000000        0.00059199        0.00004627        0.00003597
     195         -1.068018        1.000000        0.00366027        0.00005171        0.00000798
     196         -1.067683        1.000000        0.00434423        0.00005416        0.00000767
     197         -1.067094        1.000000        0.01022957        0.00011943        0.00003611
     198         -1.066200        1.000000        0.00922045        0.00022147        0.00008986
     199         -1.065105        1.000000        0.00081228        0.00003015        0.00001364
     200         -1.064600        1.000000        0.00000405        0.00004094        0.00003174
     201         -1.063825        1.000000        0.00563777        0.00012590        0.00003183
     202         -1.063672        1.000000        0.00692134        0.00009363        0.00001074
     203         -1.062915        1.000000        0.00345501        0.00003925        0.00001513
     204         -1.062259        1.000000        0.00682793        0.00047204        0.00010269
     205         -1.061986        1.000000        0.00027713        0.00000623        0.00001140
     206         -1.060822        1.000000        0.00467150        0.00004030        0.00002034
     207         -1.060230        1.000000        0.00000239        0.00002091        0.00002854
     208         -1.059971        1.000000        0.00186212        0.00004323        0.00001531
     209         -1.059399        1.000000        0.00362471        0.00011034        0.00005183
     210         -1.058798        1.000000        0.00070687        0.00011716        0.00008647
     211         -1.058498        1.000000        0.00149593        0.00005493        0.00000732
     212         -1.057049        1.000000        0.00029066        0.00004645        0.00002902
     213         -1.056896        1.000000        0.00295452        0.00010575        0.00006751
     214         -1.056403        1.000000        0.00670727        0.00007615        0.00003338
     215         -1.056079        1.000000        0.00119427        0.00003026        0.00006523
     216         -1.055624        1.000000        0.00176891        0.00015181        0.00012036
     217         -1.055288        1.000000        0.00002991        0.00000262        0.00000132
     218         -1.054828        1.000000        0.00169668        0.00006597        0.00000659
     219         -1.054413        1.000000        0.00662903        0.00016229        0.00006781
     220         -1.053990        1.000000        0.00010616        0.00002808        0.00000828
     221         -1.053598        1.000000        0.00003207        0.00008663        0.00003619
     222         -1.053387        1.000000        0.00156610        0.00001961        0.00000199
     223         -1.052953        1.000000        0.00575482        0.00008151        0.00005179
     224         -1.052779        1.000000        0.00064137        0.00002729        0.00000249
     225         -1.052376        1.000000        0.00000727        0.00003402        0.00002125
     226         -1.052297        1.000000        0.00027147        0.00001220        0.00000759
     227         -1.051819        1.000000        0.00398927        0.00007998        0.00004472
     228         -1.051536        1.000000        0.00008459        0.00000906        0.00000611
     229         -1.051232        1.000000        0.00573984        0.00009034        0.00003681
     230         -1.050581        1.000000        0.00124992        0.00002821        0.00002816
     231         -1.050140        1.000000        0.06277337        0.00040463        0.00010283
     232         -1.049834        1.000000        0.00047277        0.00001119        0.00000159
     233         -1.049588        1.000000        0.01486708        0.00011808        0.00010292
     234         -1.049506        1.000000        0.00086549        0.00001016        0.00000636
     235         -1.048565        1.000000        0.00470185        0.00005618        0.00000515
     236         -1.048103        1.000000        0.00201703        0.00004876        0.00000491
     237         -1.048023        1.000000        0.07829588        0.00048071        0.00003374
     238         -1.047651        1.000000        0.00881143        0.00007528        0.00001829
     239         -1.047305        1.000000        0.01390543        0.00011637        0.00010194
     240         -1.046707        1.000000        0.00082054        0.00001117        0.00000553
     241         -1.046592        1.000000        0.00033684        0.00001334        0.00000642
     242         -1.046281        1.000000        0.00434404        0.00005061        0.00003611
     243         -1.045974        1.000000        0.03276268        0.00022032        0.00004560
     244         -1.045866        1.000000        0.00372329        0.00003200        0.00000199
     245         -1.045771        1.000000        0.00541632        0.00006670        0.00002994
     246         -1.045301        1.000000        0.00911932        0.00010475        0.00005723
     247         -1.045020        1.000000        0.00640429        0.00004422        0.00000870
     248         -1.043956        1.000000        0.00391079        0.00005715        0.00002936
     249         -1.043818        1.000000        0.00291015        0.00004673        0.00002522
     250         -1.043244        1.000000        0.00220531        0.00003174        0.00002777
     251         -1.043119        1.000000        0.00009588        0.00001029        0.00000950
     252         -1.042993        1.000000        0.00001689        0.00000486        0.00000212
     253         -1.042515        1.000000        0.00000088        0.00000147        0.00000217
     254         -1.041302        1.000000        0.00105054        0.00003454        0.00001607
     255         -1.041116        1.000000        0.00143905        0.00007137        0.00007432
     256         -1.040594        1.000000        0.00000386        0.00000097        0.00000171
     257         -1.040094        1.000000        0.00082322        0.00007263        0.00008688
     258         -1.039599        1.000000        0.00028274        0.00000264        0.00000125
     259         -1.039408        1.000000        0.00165859        0.00002290        0.00000480
     260         -1.038970        1.000000        0.00059139        0.00002258        0.00003065
     261         -1.038561        1.000000        0.00002196        0.00006640        0.00009280
     262         -1.038022        1.000000        0.00001780        0.00000191        0.00000434
     263         -1.037841        1.000000        0.00000352        0.00000214        0.00000191
     264         -1.036991        1.000000        0.00092215        0.00001643        0.00001373
     265         -1.036854        1.000000        0.00387838        0.00008060        0.00002399
     266         -1.035910        1.000000        0.00118526        0.00002089        0.00000583
     267         -1.035115        1.000000        0.00001481        0.00000283        0.00000546
     268         -1.034275        1.000000        0.00025408        0.00002043        0.00000702
     269         -1.033697        1.000000        0.00007127        0.00000381        0.00000115
     270         -1.033444        1.000000        0.00012002        0.00000802        0.00000366
     271         -1.033385        1.000000        0.00000136        0.00000162        0.00000050
     272         -1.033262        1.000000        0.00002617        0.00000507        0.00000744
     273         -1.032346        1.000000        0.00002412        0.00000121        0.00000100
     274         -1.031626        1.000000        0.00000082        0.00000017        0.00000006
     275         -1.030746        1.000000        0.00002241        0.00000666        0.00000340
     276         -1.029780        1.000000        0.00000122        0.00000063        0.00000006
     277         -1.028980        1.000000        0.00000337        0.00000018        0.00000012
     278         -1.027492        1.000000        0.00014609        0.00002072        0.00001067
     279         -1.025795        1.000000        0.00008250        0.00000195        0.00000034
     280         -1.023990        1.000000        0.00000732        0.00000207        0.00000145
     281         -1.022755        1.000000        0.00003545        0.00001097        0.00000679
     282         -1.019871        1.000000        0.00000150        0.00000009        0.00000005
     283         -1.017737        1.000000        0.00002216        0.00000442        0.00000198
     284         -1.012409        1.000000        0.00000967        0.00000016        0.00000007
     285         -1.010522        1.000000        0.00000809        0.00000202        0.00000045
     286         -0.880961        1.000000        0.00000000        0.00000000        0.00000000
     287         -0.861761        1.000000        0.00000000        0.00000000        0.00000000
     288         -0.860652        1.000000        0.00000000        0.00000000        0.00000000
     289         -0.854811        1.000000        0.00000000        0.00000000        0.00000000
     290         -0.853189        1.000000        0.00000000        0.00000000        0.00000000
     291         -0.838407        1.000000        0.00000000        0.00000000        0.00000000
     292         -0.837131        1.000000        0.00000000        0.00000000        0.00000000
     293         -0.835422        1.000000        0.00000000        0.00000000        0.00000000
     294         -0.832873        1.000000        0.00000000        0.00000000        0.00000000
     295         -0.813092        1.000000        0.00000000        0.00000000        0.00000000
     296         -0.811309        1.000000        0.00000000        0.00000000        0.00000000
     297         -0.805633        1.000000        0.00000000        0.00000000        0.00000000
     298         -0.800994        1.000000        0.00000000        0.00000000        0.00000000
     299         -0.798544        1.000000        0.00000000        0.00000000        0.00000000
     300         -0.797176        1.000000        0.00000000        0.00000000        0.00000000
     301         -0.796065        1.000000        0.00000000        0.00000000        0.00000000
     302         -0.795247        1.000000        0.00000000        0.00000000        0.00000000
     303         -0.794465        1.000000        0.00000000        0.00000000        0.00000000
     304         -0.792558        1.000000        0.00000000        0.00000000        0.00000000
     305         -0.791532        1.000000        0.00000000        0.00000000        0.00000000
     306         -0.790931        1.000000        0.00000000        0.00000000        0.00000000
     307         -0.790366        1.000000        0.00000000        0.00000000        0.00000000