# Projected DOS for atomic kind Si at iteration step i = 0, E(Fermi) =    -0.237583 a.u.
#     MO Eigenvalue [a.u.]      Occupation                 s                 p                 d
       1         -3.115895        1.000000        0.00000051        0.00000105        0.00000004
       2         -3.112717        1.000000        0.00000070        0.00000104        0.00000005
       3         -3.112103        1.000000        0.00000191        0.00000284        0.00000010
       4         -3.111180        1.000000        0.00000007        0.00000045        0.00000002
       5         -3.110810        1.000000        0.00000069        0.00000104        0.00000005
       6         -3.110575        1.000000        0.00000054        0.00000068        0.00000003
       7         -3.110067        1.000000        0.00000113        0.00000137        0.00000006
       8         -3.109817        1.000000        0.00000065        0.00000106        0.00000006
       9         -3.109660        1.000000        0.00000060        0.00000158        0.00000006
      10         -3.108831        1.000000        0.00000266        0.00000363        0.00000013
      11         -3.108678        1.000000        0.00000054        0.00000119        0.00000005
      12         -3.108578        1.000000        0.00000020        0.00000056        0.00000003
      13         -3.108350        1.000000        0.00000044        0.00000144        0.00000005
      14         -3.108163        1.000000        0.00000023        0.00000053        0.00000003
      15         -3.107948        1.000000        0.00000030        0.00000056        0.00000003
      16         -3.107865        1.000000        0.00000008        0.00000023        0.00000001
      17         -3.107703        1.000000        0.00000015        0.00000030        0.00000002
      18         -3.107683        1.000000        0.00000004        0.00000012        0.00000001
      19         -3.107641        1.000000        0.00000021        0.00000036        0.00000001
      20         -3.107604        1.000000        0.00000016        0.00000030        0.00000002
      21         -3.107402        1.000000        0.00000008        0.00000031        0.00000001
      22         -3.107115        1.000000        0.00000018        0.00000025        0.00000001
      23         -3.107013        1.000000        0.00000019        0.00000037        0.00000002
      24         -3.106750        1.000000        0.00000008        0.00000018        0.00000001
      25         -3.106619        1.000000        0.00000014        0.00000020        0.00000001
      26         -3.106567        1.000000        0.00000003        0.00000010        0.00000000
      27         -3.106546        1.000000        0.00000012        0.00000025        0.00000001
      28         -3.106258        1.000000        0.00000019        0.00000028        0.00000001
      29         -3.106103        1.000000        0.00000004        0.00000012        0.00000001
      30         -3.104674        1.000000        0.00000017        0.00000031        0.00000001
      31         -1.775522        1.000000        0.00000000        0.00000001        0.00000000
      32         -1.773964        1.000000        0.00000000        0.00000001        0.00000000
      33         -1.773454        1.000000        0.00000000        0.00000001        0.00000000
      34         -1.773008        1.000000        0.00000000        0.00000001        0.00000000
      35         -1.772581        1.000000        0.00000000        0.00000001        0.00000000
      36         -1.772213        1.000000        0.00000000        0.00000001        0.00000000
      37         -1.771852        1.000000        0.00000000        0.00000001        0.00000000
      38         -1.771444        1.000000        0.00000000        0.00000001        0.00000000
      39         -1.771233        1.000000        0.00000000        0.00000002        0.00000000
      40         -1.770977        1.000000        0.00000000        0.00000003        0.00000000
      41         -1.770760        1.000000        0.00000000        0.00000002        0.00000000
      42         -1.770111        1.000000        0.00000000        0.00000001        0.00000000
      43         -1.770034        1.000000        0.00000000        0.00000002        0.00000000
      44         -1.769495        1.000000        0.00000000        0.00000001        0.00000000
      45         -1.769421        1.000000        0.00000001        0.00000003        0.00000000
      46         -1.769063        1.000000        0.00000000        0.00000002        0.00000000
      47         -1.768532        1.000000        0.00000000        0.00000003        0.00000000
      48         -1.768412        1.000000        0.00000000        0.00000002        0.00000000
      49         -1.767811        1.000000        0.00000000        0.00000001        0.00000000
      50         -1.767614        1.000000        0.00000000        0.00000001        0.00000000
      51         -1.767477        1.000000        0.00000000        0.00000002        0.00000000
      52         -1.765531        1.000000        0.00000000        0.00000000        0.00000000
      53         -1.765088        1.000000        0.00000002        0.00000004        0.00000000
      54         -1.764557        1.000000        0.00000000        0.00000001        0.00000000
      55         -1.763772        1.000000        0.00000000        0.00000001        0.00000000
      56         -1.763328        1.000000        0.00000001        0.00000002        0.00000000
      57         -1.762925        1.000000        0.00000002        0.00000003        0.00000000
      58         -1.762506        1.000000        0.00000000        0.00000001        0.00000000
      59         -1.762119        1.000000        0.00000000        0.00000002        0.00000000
      60         -1.762053        1.000000        0.00000000        0.00000001        0.00000000
      61         -1.761895        1.000000        0.00000000        0.00000001        0.00000000
      62         -1.761602        1.000000        0.00000000        0.00000002        0.00000000
      63         -1.761509        1.000000        0.00000000        0.00000002        0.00000000
      64         -1.761377        1.000000        0.00000000        0.00000002        0.00000000
      65         -1.761171        1.000000        0.00000000        0.00000002        0.00000000
      66         -1.760998        1.000000        0.00000000        0.00000001        0.00000000
      67         -1.760877        1.000000        0.00000000        0.00000001        0.00000000
      68         -1.760806        1.000000        0.00000000        0.00000002        0.00000000
      69         -1.760684        1.000000        0.00000000        0.00000001        0.00000000
      70         -1.760645        1.000000        0.00000000        0.00000001        0.00000000
      71         -1.760442        1.000000        0.00000000        0.00000002        0.00000000
      72         -1.760098        1.000000        0.00000000        0.00000003        0.00000000
      73         -1.759962        1.000000        0.00000000        0.00000001        0.00000000
      74         -1.759824        1.000000        0.00000001        0.00000003        0.00000000
      75         -1.759787        1.000000        0.00000000        0.00000002        0.00000000
      76         -1.759638        1.000000        0.00000000        0.00000001        0.00000000
      77         -1.759601        1.000000        0.00000000        0.00000001        0.00000000
      78         -1.759512        1.000000        0.00000000        0.00000002        0.00000000
      79         -1.759406        1.000000        0.00000000        0.00000002        0.00000000
      80         -1.759287        1.000000        0.00000000        0.00000003        0.00000000
      81         -1.759176        1.000000        0.00000001        0.00000002        0.00000000
      82         -1.758872        1.000000        0.00000001        0.00000002        0.00000000
      83         -1.758781        1.000000        0.00000000        0.00000001        0.00000000
      84         -1.758726        1.000000        0.00000000        0.00000002        0.00000000
      85         -1.758559        1.000000        0.00000000        0.00000001        0.00000000
      86         -1.758378        1.000000        0.00000000        0.00000003        0.00000000
      87         -1.758294        1.000000        0.00000000        0.00000002        0.00000000
      88         -1.758087        1.000000        0.00000000        0.00000002        0.00000000
      89         -1.757987        1.000000        0.00000000        0.00000001        0.00000000
      90         -1.757734        1.000000        0.00000000        0.00000002        0.00000000
      91         -1.757649        1.000000        0.00000001        0.00000003        0.00000000
      92         -1.757529        1.000000        0.00000000        0.00000001        0.00000000
      93         -1.757404        1.000000        0.00000000        0.00000002        0.00000000
      94         -1.757324        1.000000        0.00000000        0.00000002        0.00000000
      95         -1.757187        1.000000        0.00000000        0.00000001        0.00000000
      96         -1.757137        1.000000        0.00000000        0.00000001        0.00000000
      97         -1.756770        1.000000        0.00000000        0.00000001        0.00000000
      98         -1.756598        1.000000        0.00000000        0.00000001        0.00000000
      99         -1.756513        1.000000        0.00000000        0.00000001        0.00000000
     100         -1.756186        1.000000        0.00000000        0.00000001        0.00000000
     101         -1.755847        1.000000        0.00000000        0.00000000        0.00000000
     102         -1.755716        1.000000        0.00000000        0.00000001        0.00000000
     103         -1.755306        1.000000        0.00000000        0.00000001        0.00000000
     104         -1.755052        1.000000        0.00000000        0.00000001        0.00000000
     105         -1.754765        1.000000        0.00000000        0.00000002        0.00000000
     106         -1.754094        1.000000        0.00000000        0.00000001        0.00000000
     107         -1.753681        1.000000        0.00000000        0.00000000        0.00000000
     108         -1.753548        1.000000        0.00000000        0.00000002        0.00000000
     109         -1.753256        1.000000        0.00000000        0.00000001        0.00000000
     110         -1.752675        1.000000        0.00000000        0.00000001        0.00000000
     111         -1.752502        1.000000        0.00000000        0.00000001        0.00000000
     112         -1.752253        1.000000        0.00000000        0.00000000        0.00000000
     113         -1.751643        1.000000        0.00000000        0.00000000        0.00000000
     114         -1.751317        1.000000        0.00000000        0.00000001        0.00000000
     115         -1.749193        1.000000        0.00000000        0.00000000        0.00000000
     116         -1.748137        1.000000        0.00000000        0.00000000        0.00000000
     117         -1.747283        1.000000        0.00000000        0.00000000        0.00000000
     118         -1.745962        1.000000        0.00000000        0.00000000        0.00000000
     119         -1.745880        1.000000        0.00000000        0.00000000        0.00000000
     120         -1.744143        1.000000        0.00000000        0.00000000        0.00000000
     121         -1.145318        1.000000        0.28103604        0.08448102        0.02808568
     122         -1.141162        1.000000        0.23957424        0.11666436        0.03692043
     123         -1.135518        1.000000        0.27058871        0.07610271        0.02088984
     124         -1.134356        1.000000        0.24643216        0.10014104        0.02842331
     125         -1.132797        1.000000        0.22643239        0.11913929        0.03718726
     126         -1.131675        1.000000        0.23408142        0.10860804        0.03259295
     127         -1.130657        1.000000        0.19940824        0.13166861        0.04242915
     128         -1.129329        1.000000        0.21690834        0.11979708        0.03672172
     129         -1.127805        1.000000        0.20479329        0.11632342        0.03590494
     130         -1.126970        1.000000        0.20838093        0.12853373        0.03681555
     131         -1.125100        1.000000        0.20094918        0.13694000        0.03935818
     132         -1.124640        1.000000        0.19638637        0.14292887        0.04333466
     133         -1.122028        1.000000        0.19800331        0.14030833        0.04020304
     134         -1.120887        1.000000        0.20694198        0.12216782        0.03591200
     135         -1.119308        1.000000        0.21278034        0.11825473        0.03473019
     136         -1.118408        1.000000        0.19144376        0.12539252        0.04062557
     137         -1.117769        1.000000        0.20051512        0.13061643        0.03912215
     138         -1.116570        1.000000        0.18887317        0.13238425        0.03671073
     139         -1.115096        1.000000        0.20484373        0.12057415        0.03736283
     140         -1.114402        1.000000        0.19403010        0.13580485        0.04092004
     141         -1.114039        1.000000        0.17110683        0.14810817        0.04724410
     142         -1.112381        1.000000        0.17918486        0.14701318        0.04499761
     143         -1.111588        1.000000        0.18653469        0.12303792        0.03733178
     144         -1.111356        1.000000        0.17395613        0.14238289        0.04541256
     145         -1.110913        1.000000        0.17666109        0.14172712        0.04494157
     146         -1.109631        1.000000        0.16902926        0.14918376        0.04841242
     147         -1.107338        1.000000        0.15842581        0.16227679        0.05078792
     148         -1.107163        1.000000        0.17285741        0.14774518        0.04621267
     149         -1.106911        1.000000        0.17026146        0.14206734        0.04660184
     150         -1.105904        1.000000        0.17371061        0.13648250        0.04258946
     151         -1.104513        1.000000        0.12036081        0.12290696        0.03917762
     152         -1.103753        1.000000        0.06613290        0.08090575        0.02669097
     153         -1.103233        1.000000        0.14489004        0.17243098        0.05643998
     154         -1.101116        1.000000        0.13631447        0.15145622        0.04951449
     155         -1.099878        1.000000        0.11649429        0.15729858        0.05527760
     156         -1.099527        1.000000        0.11071058        0.15112571        0.04931472
     157         -1.099360        1.000000        0.08360550        0.12223618        0.04015515
     158         -1.097449        1.000000        0.10110951        0.18794296        0.06324534
     159         -1.097246        1.000000        0.11528794        0.15293553        0.05186807
     160         -1.096336        1.000000        0.08480283        0.14138402        0.04760937
     161         -1.095776        1.000000        0.06372200        0.08894006        0.02947956
     162         -1.094258        1.000000        0.09387320        0.15303714        0.05284482
     163         -1.093701        1.000000        0.08900021        0.19757769        0.07260082
     164         -1.093107        1.000000        0.09628288        0.17009310        0.06149018
     165         -1.091600        1.000000        0.08503897        0.19240954        0.07083118
     166         -1.090890        1.000000        0.09431470        0.20231666        0.07494621
     167         -1.090283        1.000000        0.09700566        0.19560188        0.06673325
     168         -1.089378        1.000000        0.09396743        0.18891560        0.06786076
     169         -1.088506        1.000000        0.07850152        0.19392778        0.07470370
     170         -1.086931        1.000000        0.08512870        0.20265625        0.07341317
     171         -1.086367        1.000000        0.07711144        0.21329076        0.07756756
     172         -1.085327        1.000000        0.07528709        0.20729419        0.07622773
     173         -1.084766        1.000000        0.08719368        0.19495459        0.06697378
     174         -1.083961        1.000000        0.07775266        0.19249095        0.07042238
     175         -1.082920        1.000000        0.07223151        0.22122852        0.07968119
     176         -1.081700        1.000000        0.06883164        0.19659418        0.07377993
     177         -1.081031        1.000000        0.07424368        0.21810704        0.08121857
     178         -1.080558        1.000000        0.06021934        0.22036477        0.08698064
     179         -1.080415        1.000000        0.06669725        0.21232783        0.08033253
     180         -1.080047        1.000000        0.06120920        0.21402232        0.08468534
     181         -1.077309        1.000000        0.04313805        0.19012009        0.07184328
     182         -1.076601        1.000000        0.05240068        0.22005534        0.08874048
     183         -1.076342        1.000000        0.05614089        0.21387411        0.08031008
     184         -1.076154        1.000000        0.03873852        0.22171074        0.08866729
     185         -1.075469        1.000000        0.05387822        0.20124909        0.07724412
     186         -1.074904        1.000000        0.04670770        0.21409516        0.08322895
     187         -1.074160        1.000000        0.04584993        0.23189363        0.08916460
     188         -1.073364        1.000000        0.03730970        0.23542167        0.09137129
     189         -1.071841        1.000000        0.03608898        0.19729676        0.07848996
     190         -1.071436        1.000000        0.03977863        0.22258944        0.08735425
     191         -1.070358        1.000000        0.02759517        0.19843782        0.08039484
     192         -1.070160        1.000000        0.03424319        0.16244521        0.06515366
     193         -1.069551        1.000000        0.02173466        0.24055438        0.09691691
     194         -1.069042        1.000000        0.02980019        0.22384580        0.08977738
     195         -1.068018        1.000000        0.02661624        0.22489892        0.09349679
     196         -1.067683        1.000000        0.02121781        0.18827882        0.07465382
     197         -1.067094        1.000000        0.03983755        0.21084212        0.08336262
     198         -1.066200        1.000000        0.03081325        0.23085282        0.09211061
     199         -1.065105        1.000000        0.01891291        0.22230135        0.08698172
     200         -1.064600        1.000000        0.01289600        0.20928713        0.08761579
     201         -1.063825        1.000000        0.02033089        0.16222452        0.06630078
     202         -1.063672        1.000000        0.01556200        0.19387080        0.07549861
     203         -1.062915        1.000000        0.01359634        0.22338773        0.09066452
     204         -1.062259        1.000000        0.02585074        0.25337825        0.10669889
     205         -1.061986        1.000000        0.00948592        0.22897904        0.09059478
     206         -1.060822        1.000000        0.01362353        0.26256854        0.10673326
     207         -1.060230        1.000000        0.00686260        0.21182950        0.08619103
     208         -1.059971        1.000000        0.00846954        0.23786086        0.09682229
     209         -1.059399        1.000000        0.01155338        0.24878136        0.10190467
     210         -1.058798        1.000000        0.00972158        0.26214324        0.11008683
     211         -1.058498        1.000000        0.01467442        0.23620182        0.10002098
     212         -1.057049        1.000000        0.00855273        0.22547127        0.09414433
     213         -1.056896        1.000000        0.00669778        0.20426945        0.08602099
     214         -1.056403        1.000000        0.00573509        0.21473853        0.08705639
     215         -1.056079        1.000000        0.01119550        0.25973711        0.10917569
     216         -1.055624        1.000000        0.00721107        0.25341299        0.10487524
     217         -1.055288        1.000000        0.00855330        0.26130652        0.10960066
     218         -1.054828        1.000000        0.00700666        0.25089022        0.10682128
     219         -1.054413        1.000000        0.00640378        0.25373981        0.10567800
     220         -1.053990        1.000000        0.00555524        0.25721368        0.10684439
     221         -1.053598        1.000000        0.00440088        0.25812837        0.10637528
     222         -1.053387        1.000000        0.00595677        0.23202174        0.09678651
     223         -1.052953        1.000000        0.00789376        0.26641051        0.11597544
     224         -1.052779        1.000000        0.00471365        0.26671593        0.11348619
     225         -1.052376        1.000000        0.00465541        0.24935224        0.10817762
     226         -1.052297        1.000000        0.00707958        0.26060500        0.10776776
     227         -1.051819        1.000000        0.00738002        0.25618152        0.11433398
     228         -1.051536        1.000000        0.00350649        0.23735623        0.09887643
     229         -1.051232        1.000000        0.00680563        0.26840243        0.11463905
     230         -1.050581        1.000000        0.01038034        0.26301457        0.11211884
     231         -1.050140        1.000000        0.00867213        0.25581004        0.10805943
     232         -1.049834        1.000000        0.00638764        0.26021671        0.11368786
     233         -1.049588        1.000000        0.00447404        0.23805197        0.10766837
     234         -1.049506        1.000000        0.00833180        0.23755238        0.10348076
     235         -1.048565        1.000000        0.00740560        0.25766151        0.11564269
     236         -1.048103        1.000000        0.00600077        0.24815905        0.10906231
     237         -1.048023        1.000000        0.00742054        0.24934702        0.10821221
     238         -1.047651        1.000000        0.00722072        0.25439093        0.11327569
     239         -1.047305        1.000000        0.00408679        0.24236936        0.10272193
     240         -1.046707        1.000000        0.00245959        0.22135170        0.09345953
     241         -1.046592        1.000000        0.00334062        0.23734922        0.10333653
     242         -1.046281        1.000000        0.00410891        0.22097614        0.09629446
     243         -1.045974        1.000000        0.00582241        0.23931710        0.10505740
     244         -1.045866        1.000000        0.00866199        0.25741959        0.11516641
     245         -1.045771        1.000000        0.00661853        0.24138566        0.10729627
     246         -1.045301        1.000000        0.00435083        0.24806614        0.10867109
     247         -1.045020        1.000000        0.00466445        0.24428509        0.10673729
     248         -1.043956        1.000000        0.00398936        0.15419796        0.06715687
     249         -1.043818        1.000000        0.00669022        0.24312535        0.10826816
     250         -1.043244        1.000000        0.00614144        0.23609049        0.10769011
     251         -1.043119        1.000000        0.00379780        0.24982427        0.10868605
     252         -1.042993        1.000000        0.00664852        0.23765537        0.10388831
     253         -1.042515        1.000000        0.00378996        0.13429571        0.05933275
     254         -1.041302        1.000000        0.00403408        0.24982787        0.11446622
     255         -1.041116        1.000000        0.00504700        0.26115699        0.11589838
     256         -1.040594        1.000000        0.00391196        0.27736637        0.11749690
     257         -1.040094        1.000000        0.00620171        0.25795351        0.11882808
     258         -1.039599        1.000000        0.00493506        0.26892774        0.12199730
     259         -1.039408        1.000000        0.00564479        0.25726707        0.11775836
     260         -1.038970        1.000000        0.00633869        0.27445772        0.11646396
     261         -1.038561        1.000000        0.00498302        0.26114776        0.12525892
     262         -1.038022        1.000000        0.00637531        0.20301470        0.08507395
     263         -1.037841        1.000000        0.00710210        0.26246304        0.11579978
     264         -1.036991        1.000000        0.00542001        0.25646642        0.11105070
     265         -1.036854        1.000000        0.00558435        0.25719313        0.11427070
     266         -1.035910        1.000000        0.00551026        0.26830715        0.12044247
     267         -1.035115        1.000000        0.00268969        0.26646265        0.12237458
     268         -1.034275        1.000000        0.00441204        0.27296591        0.12087934
     269         -1.033697        1.000000        0.00846534        0.27027614        0.11706492
     270         -1.033444        1.000000        0.00676873        0.18404534        0.08338693
     271         -1.033385        1.000000        0.00629725        0.20108292        0.08946405
     272         -1.033262        1.000000        0.00589226        0.26192229        0.11884144
     273         -1.032346        1.000000        0.00327323        0.11830091        0.05021642
     274         -1.031626        1.000000        0.00973895        0.25924602        0.11570788
     275         -1.030746        1.000000        0.00364913        0.26118398        0.12975454
     276         -1.029780        1.000000        0.00435702        0.26691888        0.12418534
     277         -1.028980        1.000000        0.00309142        0.26576001        0.12584108
     278         -1.027492        1.000000        0.01211374        0.25775950        0.11196458
     279         -1.025795        1.000000        0.00895130        0.25158165        0.11836238
     280         -1.023990        1.000000        0.00716713        0.26116011        0.11816958
     281         -1.022755        1.000000        0.00707062        0.26035515        0.11836177
     282         -1.019871        1.000000        0.00402428        0.26075859        0.12559971
     283         -1.017737        1.000000        0.00636762        0.15429670        0.06888723
     284         -1.012409        1.000000        0.01055057        0.25777268        0.11931545
     285         -1.010522        1.000000        0.00435443        0.14981746        0.06824638
     286         -0.880961        1.000000        0.00001351        0.00001129        0.00000038
     287         -0.861761        1.000000        0.00000245        0.00000455        0.00000029
     288         -0.860652        1.000000        0.00000330        0.00000563        0.00000031
     289         -0.854811        1.000000        0.00000219        0.00000408        0.00000023
     290         -0.853189        1.000000        0.00000101        0.00000196        0.00000019
     291         -0.838407        1.000000        0.00000089        0.00000182        0.00000017
     292         -0.837131        1.000000        0.00000063        0.00000120        0.00000015
     293         -0.835422        1.000000        0.00000082        0.00000193        0.00000020
     294         -0.832873        1.000000        0.00000050        0.00000163        0.00000012
     295         -0.813092        1.000000        0.00000034        0.00000099        0.00000012
     296         -0.811309        1.000000        0.00000045        0.00000084        0.00000010
     297         -0.805633        1.000000        0.00001314        0.00000983        0.00000044
     298         -0.800994        1.000000        0.00000330        0.00000399        0.00000034
     299         -0.798544        1.000000        0.00000189        0.00000337        0.00000027
     300         -0.797176        1.000000        0.00000126        0.00000166        0.00000019
     301         -0.796065        1.000000        0.00000031        0.00000076        0.00000011
     302         -0.795247        1.000000        0.00000116        0.00000168        0.00000017
     303         -0.794465        1.000000        0.00000037        0.00000073        0.00000011
     304         -0.792558        1.000000        0.00000019        0.00000052        0.00000008
     305         -0.791532        1.000000        0.00000110        0.00000193        0.00000018
     306         -0.790931        1.000000        0.00000066        0.00000124        0.00000012
     307         -0.790366        1.000000        0.00000071        0.00000113        0.00000016