# Projected DOS for list 332 of 1 atoms, at iteration step i = 0, E(Fermi) =    -0.245567 a.u.
#     MO Eigenvalue [a.u.]      Occupation                 s                 p                 d
       1         -3.122063        1.000000        0.00000031        0.00000386        0.00000038
       2         -3.121278        1.000000        0.00000028        0.00000072        0.00000017
       3         -3.121021        1.000000        0.00000233        0.00002003        0.00000141
       4         -3.120578        1.000000        0.00000254        0.00001358        0.00000181
       5         -3.120271        1.000000        0.00006247        0.00015806        0.00001594
       6         -3.119857        1.000000        0.00000432        0.00001200        0.00000085
       7         -3.119652        1.000000        0.00000654        0.00000765        0.00000041
       8         -3.119624        1.000000        0.00000528        0.00001568        0.00000187
       9         -3.119219        1.000000        0.00006394        0.00015103        0.00001267
      10         -3.119023        1.000000        0.00001003        0.00002000        0.00000152
      11         -3.118913        1.000000        0.00000578        0.00002018        0.00000197
      12         -3.118874        1.000000        0.00000627        0.00002489        0.00000350
      13         -3.118317        1.000000        0.00214066        0.00368400        0.00023244
      14         -3.118249        1.000000        0.00009439        0.00037575        0.00003025
      15         -3.117895        1.000000        0.00001311        0.00008091        0.00000804
      16         -3.117383        1.000000        0.00000072        0.00001076        0.00000229
      17         -3.117165        1.000000        0.00008537        0.00026481        0.00002645
      18         -3.116815        1.000000        0.00009273        0.00025539        0.00003214
      19         -3.116436        1.000000        0.00001548        0.00008340        0.00001274
      20         -3.116021        1.000000        0.00001539        0.00002886        0.00000353
      21         -3.115852        1.000000        0.00018091        0.00019812        0.00000837
      22         -3.115668        1.000000        0.00286129        0.00652181        0.00064674
      23         -3.115368        1.000000        0.00000914        0.00007322        0.00001220
      24         -3.115339        1.000000        0.00016605        0.00021197        0.00002198
      25         -3.115041        1.000000        0.00023052        0.00058925        0.00002436
      26         -3.114366        1.000000        0.00018880        0.00166232        0.00033319
      27         -3.113951        1.000000        0.00000751        0.00002819        0.00000338
      28         -3.113764        1.000000        0.00182701        0.00691840        0.00096235
      29         -3.112534        1.000000        0.00000822        0.00010649        0.00001327
      30         -3.111679        1.000000        0.00001639        0.00013253        0.00001595
      31         -1.784233        1.000000        0.00013820        0.00038267        0.00002659
      32         -1.782870        1.000000        0.00003746        0.00012855        0.00001747
      33         -1.782324        1.000000        0.00001484        0.00006370        0.00001035
      34         -1.782130        1.000000        0.00011206        0.00028010        0.00001251
      35         -1.781736        1.000000        0.00000024        0.00002525        0.00001083
      36         -1.781230        1.000000        0.00002059        0.00007748        0.00000731
      37         -1.780847        1.000000        0.00004691        0.00019767        0.00004190
      38         -1.780487        1.000000        0.00001503        0.00005296        0.00001387
      39         -1.780184        1.000000        0.00017788        0.00041769        0.00002781
      40         -1.779550        1.000000        0.00000086        0.00010466        0.00004985
      41         -1.779259        1.000000        0.00029780        0.00082970        0.00010882
      42         -1.778921        1.000000        0.00004300        0.00015740        0.00002377
      43         -1.778390        1.000000        0.00067353        0.00158688        0.00009238
      44         -1.778140        1.000000        0.00003539        0.00019960        0.00005017
      45         -1.777912        1.000000        0.00000789        0.00003047        0.00000365
      46         -1.777514        1.000000        0.00004607        0.00024536        0.00004645
      47         -1.777362        1.000000        0.00010359        0.00023134        0.00001559
      48         -1.776787        1.000000        0.00037411        0.00094675        0.00008603
      49         -1.776537        1.000000        0.00022736        0.00083340        0.00019161
      50         -1.776457        1.000000        0.00005387        0.00039111        0.00015275
      51         -1.776029        1.000000        0.00009379        0.00023215        0.00003248
      52         -1.774038        1.000000        0.00002062        0.00010233        0.00003389
      53         -1.773797        1.000000        0.00000845        0.00000911        0.00000072
      54         -1.773665        1.000000        0.00001690        0.00009767        0.00005060
      55         -1.772725        1.000000        0.00004650        0.00013352        0.00001881
      56         -1.772546        1.000000        0.00000400        0.00001425        0.00000234
      57         -1.772041        1.000000        0.00000290        0.00002044        0.00000629
      58         -1.771662        1.000000        0.00022254        0.00039456        0.00001657
      59         -1.771364        1.000000        0.00000300        0.00003305        0.00000666
      60         -1.770813        1.000000        0.00024336        0.00039804        0.00001023
      61         -1.770640        1.000000        0.00006823        0.00017053        0.00001434
      62         -1.770449        1.000000        0.00001327        0.00010209        0.00003812
      63         -1.770188        1.000000        0.00002011        0.00021583        0.00005839
      64         -1.770126        1.000000        0.00029667        0.00076337        0.00009059
      65         -1.769991        1.000000        0.00006261        0.00012903        0.00001024
      66         -1.769845        1.000000        0.00002636        0.00011998        0.00002213
      67         -1.769763        1.000000        0.00000044        0.00005303        0.00003446
      68         -1.769661        1.000000        0.00002669        0.00004760        0.00000422
      69         -1.769465        1.000000        0.00002910        0.00037249        0.00015390
      70         -1.769351        1.000000        0.00016889        0.00034848        0.00004006
      71         -1.769328        1.000000        0.00005934        0.00011766        0.00001016
      72         -1.769216        1.000000        0.00003173        0.00006130        0.00000697
      73         -1.769129        1.000000        0.00002466        0.00008850        0.00001303
      74         -1.769070        1.000000        0.00005960        0.00018657        0.00004432
      75         -1.768941        1.000000        0.00000104        0.00010530        0.00004832
      76         -1.768822        1.000000        0.00005529        0.00023657        0.00006109
      77         -1.768707        1.000000        0.00000180        0.00007525        0.00003401
      78         -1.768585        1.000000        0.00000172        0.00014350        0.00005837
      79         -1.768439        1.000000        0.00000614        0.00002468        0.00000821
      80         -1.768329        1.000000        0.00000831        0.00057728        0.00024598
      81         -1.768089        1.000000        0.00020457        0.00046073        0.00008887
      82         -1.767883        1.000000        0.00001577        0.00023444        0.00008115
      83         -1.767662        1.000000        0.00000388        0.00003685        0.00001055
      84         -1.767495        1.000000        0.00005955        0.00054788        0.00018510
      85         -1.767311        1.000000        0.00020438        0.00062101        0.00019611
      86         -1.767266        1.000000        0.00004850        0.00021341        0.00009865
      87         -1.767060        1.000000        0.00026719        0.00084324        0.00027376
      88         -1.767025        1.000000        0.00004676        0.00047196        0.00015514
      89         -1.766872        1.000000        0.00005632        0.00028274        0.00010498
      90         -1.766524        1.000000        0.00012693        0.00049918        0.00016487
      91         -1.766405        1.000000        0.00001477        0.00019797        0.00009385
      92         -1.766254        1.000000        0.00000111        0.00068131        0.00031354
      93         -1.766123        1.000000        0.00000238        0.00032064        0.00013337
      94         -1.765857        1.000000        0.00005386        0.00028749        0.00008894
      95         -1.765515        1.000000        0.00000224        0.00031261        0.00015830
      96         -1.765181        1.000000        0.00025087        0.00096271        0.00018658
      97         -1.765105        1.000000        0.00000140        0.00102982        0.00047282
      98         -1.764967        1.000000        0.00000837        0.00016603        0.00009614
      99         -1.764710        1.000000        0.00001432        0.00113260        0.00051765
     100         -1.764440        1.000000        0.00000096        0.00008059        0.00007259
     101         -1.764248        1.000000        0.00003769        0.00029264        0.00007822
     102         -1.763945        1.000000        0.00000599        0.00038516        0.00021291
     103         -1.763804        1.000000        0.00000923        0.00012385        0.00003776
     104         -1.763351        1.000000        0.00002301        0.00008613        0.00003545
     105         -1.763205        1.000000        0.00003486        0.00016582        0.00006560
     106         -1.763107        1.000000        0.00001758        0.00009168        0.00007411
     107         -1.762531        1.000000        0.00007084        0.00029130        0.00011633
     108         -1.762343        1.000000        0.00002417        0.00008323        0.00002880
     109         -1.761453        1.000000        0.00000621        0.00006347        0.00003367
     110         -1.760969        1.000000        0.00000240        0.00010824        0.00013090
     111         -1.760481        1.000000        0.00000588        0.00018183        0.00009348
     112         -1.760009        1.000000        0.00006150        0.00029464        0.00008965
     113         -1.759531        1.000000        0.00001367        0.00008862        0.00004377
     114         -1.759105        1.000000        0.00010467        0.00044015        0.00017825
     115         -1.758777        1.000000        0.00000262        0.00002716        0.00000781
     116         -1.757462        1.000000        0.00000107        0.00004489        0.00001815
     117         -1.756221        1.000000        0.00000109        0.00028363        0.00016850
     118         -1.755333        1.000000        0.00000131        0.00021799        0.00012127
     119         -1.754385        1.000000        0.00000092        0.00006399        0.00009117
     120         -1.752742        1.000000        0.00000267        0.00032262        0.00026385
     121         -1.131181        1.000000        0.00000000        0.00000001        0.00000000
     122         -1.128658        1.000000        0.00000000        0.00000000        0.00000000
     123         -1.128000        1.000000        0.00000000        0.00000000        0.00000000
     124         -1.126427        1.000000        0.00000000        0.00000000        0.00000000
     125         -1.120469        1.000000        0.00000000        0.00000000        0.00000000
     126         -1.119202        1.000000        0.00000000        0.00000000        0.00000000
     127         -1.117081        1.000000        0.00000000        0.00000000        0.00000000
     128         -1.116156        1.000000        0.00000000        0.00000001        0.00000000
     129         -1.115054        1.000000        0.00000001        0.00000003        0.00000000
     130         -1.111818        1.000000        0.00000000        0.00000000        0.00000000
     131         -1.111610        1.000000        0.00000000        0.00000000        0.00000000
     132         -1.110976        1.000000        0.00000000        0.00000000        0.00000000
     133         -1.109888        1.000000        0.00000000        0.00000001        0.00000000
     134         -1.108601        1.000000        0.00000000        0.00000000        0.00000000
     135         -1.108036        1.000000        0.00000000        0.00000000        0.00000000
     136         -1.107349        1.000000        0.00000000        0.00000000        0.00000000
     137         -1.106797        1.000000        0.00000000        0.00000000        0.00000000
     138         -1.106077        1.000000        0.00000000        0.00000000        0.00000000
     139         -1.104162        1.000000        0.00000000        0.00000000        0.00000000
     140         -1.102892        1.000000        0.00000000        0.00000000        0.00000000
     141         -1.102196        1.000000        0.00000000        0.00000000        0.00000000
     142         -1.101581        1.000000        0.00000000        0.00000000        0.00000000
     143         -1.101215        1.000000        0.00000000        0.00000000        0.00000000
     144         -1.099602        1.000000        0.00000000        0.00000000        0.00000000
     145         -1.098107        1.000000        0.00000000        0.00000000        0.00000000
     146         -1.097450        1.000000        0.00000000        0.00000000        0.00000000
     147         -1.097046        1.000000        0.00000000        0.00000000        0.00000000
     148         -1.095795        1.000000        0.00000000        0.00000000        0.00000000
     149         -1.095192        1.000000        0.00000000        0.00000000        0.00000000
     150         -1.093515        1.000000        0.00000000        0.00000000        0.00000000
     151         -1.093123        1.000000        0.00000001        0.00000001        0.00000000
     152         -1.092614        1.000000        0.00000000        0.00000000        0.00000000
     153         -1.091821        1.000000        0.00000000        0.00000000        0.00000000
     154         -1.090761        1.000000        0.00000000        0.00000000        0.00000000
     155         -1.090597        1.000000        0.00000003        0.00000003        0.00000000
     156         -1.089544        1.000000        0.00000001        0.00000002        0.00000000
     157         -1.088154        1.000000        0.00000001        0.00000001        0.00000000
     158         -1.086960        1.000000        0.00000000        0.00000000        0.00000000
     159         -1.086718        1.000000        0.00000000        0.00000000        0.00000000
     160         -1.085525        1.000000        0.00000000        0.00000000        0.00000000
     161         -1.084219        1.000000        0.00000000        0.00000000        0.00000000
     162         -1.082734        1.000000        0.00000000        0.00000000        0.00000000
     163         -1.082381        1.000000        0.00000000        0.00000001        0.00000000
     164         -1.080807        1.000000        0.00000000        0.00000000        0.00000000
     165         -1.080293        1.000000        0.00000000        0.00000000        0.00000000
     166         -1.079453        1.000000        0.00000000        0.00000001        0.00000000
     167         -1.078246        1.000000        0.00000000        0.00000000        0.00000000
     168         -1.077774        1.000000        0.00000000        0.00000000        0.00000000
     169         -1.077143        1.000000        0.00000000        0.00000001        0.00000000
     170         -1.076426        1.000000        0.00000000        0.00000000        0.00000000
     171         -1.076145        1.000000        0.00000000        0.00000000        0.00000000
     172         -1.074526        1.000000        0.00000000        0.00000000        0.00000000
     173         -1.074368        1.000000        0.00000000        0.00000000        0.00000000
     174         -1.073652        1.000000        0.00000000        0.00000002        0.00000000
     175         -1.072808        1.000000        0.00000000        0.00000001        0.00000000
     176         -1.072152        1.000000        0.00000000        0.00000001        0.00000000
     177         -1.071192        1.000000        0.00000000        0.00000000        0.00000000
     178         -1.070444        1.000000        0.00000000        0.00000001        0.00000000
     179         -1.070141        1.000000        0.00000001        0.00000005        0.00000000
     180         -1.069416        1.000000        0.00000000        0.00000001        0.00000000
     181         -1.069179        1.000000        0.00000000        0.00000000        0.00000000
     182         -1.067610        1.000000        0.00000000        0.00000002        0.00000000
     183         -1.066240        1.000000        0.00000000        0.00000003        0.00000000
     184         -1.065124        1.000000        0.00000000        0.00000000        0.00000000
     185         -1.064565        1.000000        0.00000000        0.00000002        0.00000000
     186         -1.063575        1.000000        0.00000000        0.00000001        0.00000000
     187         -1.062901        1.000000        0.00000000        0.00000000        0.00000000
     188         -1.062274        1.000000        0.00000000        0.00000000        0.00000000
     189         -1.061481        1.000000        0.00000000        0.00000001        0.00000000
     190         -1.061312        1.000000        0.00000000        0.00000000        0.00000000
     191         -1.060592        1.000000        0.00000000        0.00000002        0.00000000
     192         -1.059297        1.000000        0.00000000        0.00000001        0.00000000
     193         -1.058643        1.000000        0.00000000        0.00000000        0.00000000
     194         -1.058262        1.000000        0.00000000        0.00000000        0.00000000
     195         -1.057127        1.000000        0.00000000        0.00000001        0.00000000
     196         -1.056224        1.000000        0.00000000        0.00000001        0.00000000
     197         -1.056050        1.000000        0.00000000        0.00000000        0.00000000
     198         -1.054881        1.000000        0.00000000        0.00000001        0.00000000
     199         -1.054669        1.000000        0.00000000        0.00000000        0.00000000
     200         -1.053605        1.000000        0.00000000        0.00000000        0.00000000
     201         -1.053457        1.000000        0.00000000        0.00000000        0.00000000
     202         -1.052589        1.000000        0.00000000        0.00000000        0.00000000
     203         -1.052089        1.000000        0.00000000        0.00000001        0.00000000
     204         -1.051299        1.000000        0.00000000        0.00000000        0.00000000
     205         -1.050676        1.000000        0.00000000        0.00000000        0.00000000
     206         -1.050307        1.000000        0.00000000        0.00000001        0.00000000
     207         -1.049921        1.000000        0.00000000        0.00000000        0.00000000
     208         -1.049485        1.000000        0.00000000        0.00000000        0.00000000
     209         -1.049126        1.000000        0.00000000        0.00000000        0.00000000
     210         -1.048445        1.000000        0.00000000        0.00000000        0.00000000
     211         -1.048201        1.000000        0.00000000        0.00000000        0.00000000
     212         -1.047911        1.000000        0.00000000        0.00000001        0.00000000
     213         -1.047620        1.000000        0.00000000        0.00000001        0.00000000
     214         -1.046931        1.000000        0.00000000        0.00000000        0.00000000
     215         -1.046733        1.000000        0.00000000        0.00000001        0.00000000
     216         -1.046634        1.000000        0.00000000        0.00000001        0.00000000
     217         -1.045930        1.000000        0.00000000        0.00000000        0.00000000
     218         -1.045069        1.000000        0.00000000        0.00000001        0.00000000
     219         -1.044350        1.000000        0.00000000        0.00000000        0.00000000
     220         -1.043623        1.000000        0.00000000        0.00000001        0.00000000
     221         -1.043421        1.000000        0.00000000        0.00000001        0.00000000
     222         -1.042778        1.000000        0.00000000        0.00000000        0.00000000
     223         -1.042701        1.000000        0.00000000        0.00000000        0.00000000
     224         -1.042424        1.000000        0.00000000        0.00000000        0.00000000
     225         -1.041682        1.000000        0.00000000        0.00000000        0.00000000
     226         -1.041498        1.000000        0.00000000        0.00000000        0.00000000
     227         -1.040837        1.000000        0.00000000        0.00000000        0.00000000
     228         -1.040496        1.000000        0.00000000        0.00000000        0.00000000
     229         -1.040151        1.000000        0.00000000        0.00000000        0.00000000
     230         -1.039686        1.000000        0.00000000        0.00000000        0.00000000
     231         -1.038961        1.000000        0.00000000        0.00000000        0.00000000
     232         -1.038553        1.000000        0.00000000        0.00000000        0.00000000
     233         -1.038476        1.000000        0.00000000        0.00000000        0.00000000
     234         -1.038152        1.000000        0.00000000        0.00000000        0.00000000
     235         -1.038041        1.000000        0.00000000        0.00000000        0.00000000
     236         -1.036855        1.000000        0.00000000        0.00000000        0.00000000
     237         -1.036488        1.000000        0.00000000        0.00000000        0.00000000
     238         -1.036186        1.000000        0.00000000        0.00000000        0.00000000
     239         -1.036068        1.000000        0.00000000        0.00000000        0.00000000
     240         -1.035757        1.000000        0.00000000        0.00000000        0.00000000
     241         -1.035291        1.000000        0.00000000        0.00000000        0.00000000
     242         -1.035048        1.000000        0.00000000        0.00000000        0.00000000
     243         -1.035000        1.000000        0.00000000        0.00000000        0.00000000
     244         -1.034454        1.000000        0.00000000        0.00000000        0.00000000
     245         -1.034219        1.000000        0.00000000        0.00000000        0.00000000
     246         -1.033874        1.000000        0.00000000        0.00000000        0.00000000
     247         -1.033507        1.000000        0.00000000        0.00000000        0.00000000
     248         -1.033219        1.000000        0.00000000        0.00000000        0.00000000
     249         -1.033056        1.000000        0.00000000        0.00000000        0.00000000
     250         -1.032307        1.000000        0.00000000        0.00000000        0.00000000
     251         -1.031324        1.000000        0.00000000        0.00000002        0.00000000
     252         -1.031144        1.000000        0.00000000        0.00000000        0.00000000
     253         -1.030643        1.000000        0.00000000        0.00000000        0.00000000
     254         -1.030284        1.000000        0.00000000        0.00000000        0.00000000
     255         -1.030062        1.000000        0.00000000        0.00000000        0.00000000
     256         -1.029818        1.000000        0.00000000        0.00000001        0.00000000
     257         -1.028552        1.000000        0.00000000        0.00000000        0.00000000
     258         -1.027578        1.000000        0.00000000        0.00000000        0.00000000
     259         -1.027121        1.000000        0.00000000        0.00000000        0.00000000
     260         -1.026880        1.000000        0.00000000        0.00000001        0.00000000
     261         -1.026226        1.000000        0.00000000        0.00000000        0.00000000
     262         -1.025765        1.000000        0.00000000        0.00000000        0.00000000
     263         -1.025299        1.000000        0.00000000        0.00000000        0.00000000
     264         -1.025158        1.000000        0.00000000        0.00000001        0.00000000
     265         -1.025007        1.000000        0.00000000        0.00000001        0.00000000
     266         -1.024422        1.000000        0.00000000        0.00000000        0.00000000
     267         -1.023793        1.000000        0.00000000        0.00000000        0.00000000
     268         -1.023594        1.000000        0.00000002        0.00000003        0.00000000
     269         -1.023069        1.000000        0.00000000        0.00000000        0.00000000
     270         -1.022603        1.000000        0.00000000        0.00000000        0.00000000
     271         -1.022074        1.000000        0.00000000        0.00000001        0.00000000
     272         -1.021695        1.000000        0.00000000        0.00000000        0.00000000
     273         -1.021372        1.000000        0.00000000        0.00000000        0.00000000
     274         -1.021076        1.000000        0.00000002        0.00000005        0.00000000
     275         -1.019492        1.000000        0.00000000        0.00000000        0.00000000
     276         -1.018003        1.000000        0.00000000        0.00000000        0.00000000
     277         -1.016408        1.000000        0.00000001        0.00000003        0.00000000
     278         -1.016278        1.000000        0.00000000        0.00000000        0.00000000
     279         -1.015338        1.000000        0.00000000        0.00000000        0.00000000
     280         -1.013851        1.000000        0.00000000        0.00000000        0.00000000
     281         -1.010223        1.000000        0.00000000        0.00000000        0.00000000
     282         -1.009666        1.000000        0.00000000        0.00000000        0.00000000
     283         -1.007726        1.000000        0.00000000        0.00000001        0.00000000
     284         -1.007300        1.000000        0.00000000        0.00000000        0.00000000
     285         -1.006916        1.000000        0.00000000        0.00000000        0.00000000
     286         -0.889442        1.000000        0.00973864        0.00043567        0.00000851
     287         -0.869424        1.000000        0.00247107        0.00097147        0.00002256
     288         -0.867225        1.000000        0.01612399        0.00059297        0.00002442
     289         -0.864755        1.000000        0.00051430        0.00175212        0.00003732
     290         -0.860947        1.000000        0.01341930        0.00064390        0.00002387
     291         -0.846899        1.000000        0.00010154        0.00098927        0.00009262
     292         -0.844423        1.000000        0.00178251        0.00061898        0.00002107
     293         -0.843782        1.000000        0.00148892        0.00105712        0.00001368
     294         -0.840445        1.000000        0.02656933        0.00121895        0.00001127
     295         -0.821748        1.000000        0.00133702        0.00136181        0.00005118
     296         -0.818927        1.000000        0.01089417        0.00030132        0.00013143
     297         -0.814033        1.000000        0.00850713        0.00032318        0.00014721
     298         -0.808071        1.000000        0.01408715        0.00140233        0.00007919
     299         -0.807076        1.000000        0.00831946        0.00045455        0.00007501
     300         -0.806003        1.000000        0.00718039        0.00032499        0.00005983
     301         -0.805433        1.000000        0.02035772        0.00044153        0.00002050
     302         -0.803208        1.000000        0.00598025        0.00047635        0.00001775
     303         -0.802271        1.000000        0.00000312        0.00079142        0.00000672
     304         -0.801014        1.000000        0.00438332        0.00019305        0.00013474
     305         -0.800419        1.000000        0.02570123        0.00068510        0.00001734
     306         -0.800163        1.000000        0.00123173        0.00095171        0.00012141
     307         -0.798966        1.000000        0.00069419        0.00197381        0.00010218