# Projected DOS for list 187 of 1 atoms, at iteration step i = 0, E(Fermi) =    -0.245567 a.u.
#     MO Eigenvalue [a.u.]      Occupation                 s                 p                 d
       1         -3.122063        1.000000        0.00000000        0.00000000        0.00000000
       2         -3.121278        1.000000        0.00000000        0.00000000        0.00000000
       3         -3.121021        1.000000        0.00000000        0.00000000        0.00000000
       4         -3.120578        1.000000        0.00000000        0.00000000        0.00000000
       5         -3.120271        1.000000        0.00000000        0.00000000        0.00000000
       6         -3.119857        1.000000        0.00000000        0.00000000        0.00000000
       7         -3.119652        1.000000        0.00000000        0.00000000        0.00000000
       8         -3.119624        1.000000        0.00000000        0.00000000        0.00000000
       9         -3.119219        1.000000        0.00000000        0.00000000        0.00000000
      10         -3.119023        1.000000        0.00000000        0.00000000        0.00000000
      11         -3.118913        1.000000        0.00000000        0.00000000        0.00000000
      12         -3.118874        1.000000        0.00000000        0.00000000        0.00000000
      13         -3.118317        1.000000        0.00000000        0.00000000        0.00000000
      14         -3.118249        1.000000        0.00000000        0.00000000        0.00000000
      15         -3.117895        1.000000        0.00000000        0.00000000        0.00000000
      16         -3.117383        1.000000        0.00000000        0.00000000        0.00000000
      17         -3.117165        1.000000        0.00000000        0.00000000        0.00000000
      18         -3.116815        1.000000        0.00000000        0.00000000        0.00000000
      19         -3.116436        1.000000        0.00000000        0.00000000        0.00000000
      20         -3.116021        1.000000        0.00000000        0.00000000        0.00000000
      21         -3.115852        1.000000        0.00000000        0.00000000        0.00000000
      22         -3.115668        1.000000        0.00000000        0.00000000        0.00000000
      23         -3.115368        1.000000        0.00000000        0.00000000        0.00000000
      24         -3.115339        1.000000        0.00000000        0.00000000        0.00000000
      25         -3.115041        1.000000        0.00000000        0.00000000        0.00000000
      26         -3.114366        1.000000        0.00000000        0.00000000        0.00000000
      27         -3.113951        1.000000        0.00000000        0.00000000        0.00000000
      28         -3.113764        1.000000        0.00000000        0.00000000        0.00000000
      29         -3.112534        1.000000        0.00000000        0.00000000        0.00000000
      30         -3.111679        1.000000        0.00000000        0.00000000        0.00000000
      31         -1.784233        1.000000        0.00000000        0.00000000        0.00000000
      32         -1.782870        1.000000        0.00000000        0.00000000        0.00000000
      33         -1.782324        1.000000        0.00000000        0.00000000        0.00000000
      34         -1.782130        1.000000        0.00000000        0.00000000        0.00000000
      35         -1.781736        1.000000        0.00000000        0.00000000        0.00000000
      36         -1.781230        1.000000        0.00000000        0.00000000        0.00000000
      37         -1.780847        1.000000        0.00000000        0.00000000        0.00000000
      38         -1.780487        1.000000        0.00000000        0.00000000        0.00000000
      39         -1.780184        1.000000        0.00000000        0.00000000        0.00000000
      40         -1.779550        1.000000        0.00000000        0.00000000        0.00000000
      41         -1.779259        1.000000        0.00000000        0.00000000        0.00000000
      42         -1.778921        1.000000        0.00000000        0.00000000        0.00000000
      43         -1.778390        1.000000        0.00000000        0.00000000        0.00000000
      44         -1.778140        1.000000        0.00000000        0.00000000        0.00000000
      45         -1.777912        1.000000        0.00000000        0.00000000        0.00000000
      46         -1.777514        1.000000        0.00000000        0.00000000        0.00000000
      47         -1.777362        1.000000        0.00000000        0.00000000        0.00000000
      48         -1.776787        1.000000        0.00000000        0.00000000        0.00000000
      49         -1.776537        1.000000        0.00000000        0.00000000        0.00000000
      50         -1.776457        1.000000        0.00000000        0.00000000        0.00000000
      51         -1.776029        1.000000        0.00000000        0.00000000        0.00000000
      52         -1.774038        1.000000        0.00000000        0.00000000        0.00000000
      53         -1.773797        1.000000        0.00000000        0.00000000        0.00000000
      54         -1.773665        1.000000        0.00000000        0.00000000        0.00000000
      55         -1.772725        1.000000        0.00000000        0.00000000        0.00000000
      56         -1.772546        1.000000        0.00000000        0.00000000        0.00000000
      57         -1.772041        1.000000        0.00000000        0.00000000        0.00000000
      58         -1.771662        1.000000        0.00000000        0.00000000        0.00000000
      59         -1.771364        1.000000        0.00000000        0.00000000        0.00000000
      60         -1.770813        1.000000        0.00000000        0.00000000        0.00000000
      61         -1.770640        1.000000        0.00000000        0.00000000        0.00000000
      62         -1.770449        1.000000        0.00000000        0.00000000        0.00000000
      63         -1.770188        1.000000        0.00000000        0.00000000        0.00000000
      64         -1.770126        1.000000        0.00000000        0.00000000        0.00000000
      65         -1.769991        1.000000        0.00000000        0.00000000        0.00000000
      66         -1.769845        1.000000        0.00000000        0.00000000        0.00000000
      67         -1.769763        1.000000        0.00000000        0.00000000        0.00000000
      68         -1.769661        1.000000        0.00000000        0.00000000        0.00000000
      69         -1.769465        1.000000        0.00000000        0.00000000        0.00000000
      70         -1.769351        1.000000        0.00000000        0.00000000        0.00000000
      71         -1.769328        1.000000        0.00000000        0.00000000        0.00000000
      72         -1.769216        1.000000        0.00000000        0.00000000        0.00000000
      73         -1.769129        1.000000        0.00000000        0.00000000        0.00000000
      74         -1.769070        1.000000        0.00000000        0.00000000        0.00000000
      75         -1.768941        1.000000        0.00000000        0.00000000        0.00000000
      76         -1.768822        1.000000        0.00000000        0.00000000        0.00000000
      77         -1.768707        1.000000        0.00000000        0.00000000        0.00000000
      78         -1.768585        1.000000        0.00000000        0.00000000        0.00000000
      79         -1.768439        1.000000        0.00000000        0.00000000        0.00000000
      80         -1.768329        1.000000        0.00000000        0.00000000        0.00000000
      81         -1.768089        1.000000        0.00000000        0.00000000        0.00000000
      82         -1.767883        1.000000        0.00000000        0.00000000        0.00000000
      83         -1.767662        1.000000        0.00000000        0.00000000        0.00000000
      84         -1.767495        1.000000        0.00000000        0.00000000        0.00000000
      85         -1.767311        1.000000        0.00000000        0.00000000        0.00000000
      86         -1.767266        1.000000        0.00000000        0.00000000        0.00000000
      87         -1.767060        1.000000        0.00000000        0.00000000        0.00000000
      88         -1.767025        1.000000        0.00000000        0.00000000        0.00000000
      89         -1.766872        1.000000        0.00000000        0.00000000        0.00000000
      90         -1.766524        1.000000        0.00000000        0.00000000        0.00000000
      91         -1.766405        1.000000        0.00000000        0.00000000        0.00000000
      92         -1.766254        1.000000        0.00000000        0.00000000        0.00000000
      93         -1.766123        1.000000        0.00000000        0.00000000        0.00000000
      94         -1.765857        1.000000        0.00000000        0.00000000        0.00000000
      95         -1.765515        1.000000        0.00000000        0.00000000        0.00000000
      96         -1.765181        1.000000        0.00000000        0.00000000        0.00000000
      97         -1.765105        1.000000        0.00000000        0.00000000        0.00000000
      98         -1.764967        1.000000        0.00000000        0.00000000        0.00000000
      99         -1.764710        1.000000        0.00000000        0.00000000        0.00000000
     100         -1.764440        1.000000        0.00000000        0.00000000        0.00000000
     101         -1.764248        1.000000        0.00000000        0.00000000        0.00000000
     102         -1.763945        1.000000        0.00000000        0.00000000        0.00000000
     103         -1.763804        1.000000        0.00000000        0.00000000        0.00000000
     104         -1.763351        1.000000        0.00000000        0.00000000        0.00000000
     105         -1.763205        1.000000        0.00000000        0.00000000        0.00000000
     106         -1.763107        1.000000        0.00000000        0.00000000        0.00000000
     107         -1.762531        1.000000        0.00000000        0.00000000        0.00000000
     108         -1.762343        1.000000        0.00000000        0.00000000        0.00000000
     109         -1.761453        1.000000        0.00000000        0.00000000        0.00000000
     110         -1.760969        1.000000        0.00000000        0.00000000        0.00000000
     111         -1.760481        1.000000        0.00000000        0.00000000        0.00000000
     112         -1.760009        1.000000        0.00000000        0.00000000        0.00000000
     113         -1.759531        1.000000        0.00000000        0.00000000        0.00000000
     114         -1.759105        1.000000        0.00000000        0.00000000        0.00000000
     115         -1.758777        1.000000        0.00000000        0.00000000        0.00000000
     116         -1.757462        1.000000        0.00000000        0.00000000        0.00000000
     117         -1.756221        1.000000        0.00000000        0.00000000        0.00000000
     118         -1.755333        1.000000        0.00000000        0.00000000        0.00000000
     119         -1.754385        1.000000        0.00000000        0.00000000        0.00000000
     120         -1.752742        1.000000        0.00000000        0.00000000        0.00000000
     121         -1.131181        1.000000        0.00998081        0.00027936        0.00025238
     122         -1.128658        1.000000        0.00077005        0.00073740        0.00003249
     123         -1.128000        1.000000        0.00097956        0.00021996        0.00003097
     124         -1.126427        1.000000        0.00224859        0.00009714        0.00004885
     125         -1.120469        1.000000        0.00302305        0.00030394        0.00007050
     126         -1.119202        1.000000        0.01310327        0.00079951        0.00026300
     127         -1.117081        1.000000        0.03439929        0.00164401        0.00054526
     128         -1.116156        1.000000        0.00508901        0.00013287        0.00006628
     129         -1.115054        1.000000        0.00036102        0.00024909        0.00000743
     130         -1.111818        1.000000        0.00865527        0.00023014        0.00010814
     131         -1.111610        1.000000        0.01593785        0.00039073        0.00020999
     132         -1.110976        1.000000        0.00082845        0.00015770        0.00003465
     133         -1.109888        1.000000        0.00069460        0.00016228        0.00001918
     134         -1.108601        1.000000        0.00001986        0.00011613        0.00002854
     135         -1.108036        1.000000        0.00448588        0.00005059        0.00010036
     136         -1.107349        1.000000        0.01264400        0.00052257        0.00014859
     137         -1.106797        1.000000        0.00063132        0.00021603        0.00002217
     138         -1.106077        1.000000        0.00020328        0.00009307        0.00000839
     139         -1.104162        1.000000        0.00087607        0.00007607        0.00001243
     140         -1.102892        1.000000        0.00153066        0.00033545        0.00003476
     141         -1.102196        1.000000        0.01209343        0.00059755        0.00010983
     142         -1.101581        1.000000        0.01614626        0.00027973        0.00013241
     143         -1.101215        1.000000        0.00012646        0.00002219        0.00001408
     144         -1.099602        1.000000        0.01185471        0.00048430        0.00012845
     145         -1.098107        1.000000        0.02704413        0.00040203        0.00024945
     146         -1.097450        1.000000        0.00003054        0.00059527        0.00003165
     147         -1.097046        1.000000        0.00190701        0.00011191        0.00001523
     148         -1.095795        1.000000        0.00652248        0.00041642        0.00005756
     149         -1.095192        1.000000        0.00336650        0.00017822        0.00004915
     150         -1.093515        1.000000        0.00022656        0.00099536        0.00000929
     151         -1.093123        1.000000        0.00165217        0.00012386        0.00001895
     152         -1.092614        1.000000        0.00024654        0.00003220        0.00000447
     153         -1.091821        1.000000        0.00100380        0.00029279        0.00003643
     154         -1.090761        1.000000        0.00623311        0.00015318        0.00004401
     155         -1.090597        1.000000        0.00034290        0.00003798        0.00001362
     156         -1.089544        1.000000        0.00167787        0.00004133        0.00001335
     157         -1.088154        1.000000        0.00002130        0.00001007        0.00000551
     158         -1.086960        1.000000        0.00190245        0.00008147        0.00001179
     159         -1.086718        1.000000        0.00093378        0.00001685        0.00000414
     160         -1.085525        1.000000        0.02334660        0.00060853        0.00016853
     161         -1.084219        1.000000        0.00107349        0.00033445        0.00003908
     162         -1.082734        1.000000        0.01593984        0.00018402        0.00007608
     163         -1.082381        1.000000        0.00322733        0.00021624        0.00002918
     164         -1.080807        1.000000        0.00384278        0.00005820        0.00002339
     165         -1.080293        1.000000        0.00343580        0.00006081        0.00002010
     166         -1.079453        1.000000        0.01184345        0.00099867        0.00006006
     167         -1.078246        1.000000        0.00279142        0.00097730        0.00000764
     168         -1.077774        1.000000        0.00361236        0.00004052        0.00000882
     169         -1.077143        1.000000        0.00298232        0.00109409        0.00001670
     170         -1.076426        1.000000        0.01628812        0.00181670        0.00010234
     171         -1.076145        1.000000        0.00030454        0.00083653        0.00001217
     172         -1.074526        1.000000        0.00001773        0.00090484        0.00004953
     173         -1.074368        1.000000        0.00124819        0.00009362        0.00000231
     174         -1.073652        1.000000        0.00182634        0.00005784        0.00000596
     175         -1.072808        1.000000        0.01825297        0.00100148        0.00003494
     176         -1.072152        1.000000        0.00053676        0.00018654        0.00000875
     177         -1.071192        1.000000        0.00232214        0.00024315        0.00001024
     178         -1.070444        1.000000        0.00118612        0.00011371        0.00000280
     179         -1.070141        1.000000        0.00000474        0.00007247        0.00001665
     180         -1.069416        1.000000        0.00083013        0.00036905        0.00001107
     181         -1.069179        1.000000        0.00471599        0.00006799        0.00001961
     182         -1.067610        1.000000        0.00136485        0.00039502        0.00003460
     183         -1.066240        1.000000        0.00034655        0.00027710        0.00005656
     184         -1.065124        1.000000        0.00143814        0.00014357        0.00004779
     185         -1.064565        1.000000        0.00534291        0.00004285        0.00000366
     186         -1.063575        1.000000        0.00000059        0.00001861        0.00002417
     187         -1.062901        1.000000        0.00042250        0.00001543        0.00002088
     188         -1.062274        1.000000        0.00067502        0.00007158        0.00000381
     189         -1.061481        1.000000        0.00000314        0.00011024        0.00003990
     190         -1.061312        1.000000        0.00044793        0.00017043        0.00007331
     191         -1.060592        1.000000        0.00007303        0.00008360        0.00008663
     192         -1.059297        1.000000        0.01209767        0.00019234        0.00011875
     193         -1.058643        1.000000        0.01376871        0.00009862        0.00004857
     194         -1.058262        1.000000        0.00167342        0.00006902        0.00002724
     195         -1.057127        1.000000        0.00012137        0.00002680        0.00003377
     196         -1.056224        1.000000        0.00137022        0.00002327        0.00000867
     197         -1.056050        1.000000        0.00022835        0.00004017        0.00002326
     198         -1.054881        1.000000        0.00202768        0.00005256        0.00002163
     199         -1.054669        1.000000        0.00237410        0.00005402        0.00001349
     200         -1.053605        1.000000        0.00026974        0.00012125        0.00001917
     201         -1.053457        1.000000        0.00002479        0.00010062        0.00002638
     202         -1.052589        1.000000        0.00160280        0.00024502        0.00005203
     203         -1.052089        1.000000        0.00002350        0.00033139        0.00005233
     204         -1.051299        1.000000        0.00064646        0.00027008        0.00006364
     205         -1.050676        1.000000        0.00001106        0.00005525        0.00001737
     206         -1.050307        1.000000        0.00055721        0.00004419        0.00001051
     207         -1.049921        1.000000        0.00000243        0.00005971        0.00003409
     208         -1.049485        1.000000        0.00039167        0.00000632        0.00002455
     209         -1.049126        1.000000        0.00489624        0.00023965        0.00002232
     210         -1.048445        1.000000        0.00370161        0.00005639        0.00006373
     211         -1.048201        1.000000        0.00218914        0.00012519        0.00008147
     212         -1.047911        1.000000        0.00000003        0.00005157        0.00005639
     213         -1.047620        1.000000        0.00329449        0.00003700        0.00001855
     214         -1.046931        1.000000        0.00002148        0.00009353        0.00004657
     215         -1.046733        1.000000        0.00346755        0.00021758        0.00005019
     216         -1.046634        1.000000        0.00458903        0.00003943        0.00000806
     217         -1.045930        1.000000        0.00958282        0.00017402        0.00007604
     218         -1.045069        1.000000        0.00385695        0.00012316        0.00002679
     219         -1.044350        1.000000        0.00253380        0.00014327        0.00003312
     220         -1.043623        1.000000        0.00129024        0.00003024        0.00000902
     221         -1.043421        1.000000        0.00047831        0.00000755        0.00000227
     222         -1.042778        1.000000        0.00817898        0.00034951        0.00000563
     223         -1.042701        1.000000        0.00055802        0.00006357        0.00002643
     224         -1.042424        1.000000        0.02987444        0.00056655        0.00002006
     225         -1.041682        1.000000        0.02945989        0.00061931        0.00001339
     226         -1.041498        1.000000        0.00638969        0.00013845        0.00000858
     227         -1.040837        1.000000        0.01476554        0.00029291        0.00000600
     228         -1.040496        1.000000        0.00314705        0.00004670        0.00001884
     229         -1.040151        1.000000        0.00166400        0.00003352        0.00000681
     230         -1.039686        1.000000        0.00207288        0.00004077        0.00002345
     231         -1.038961        1.000000        0.00890927        0.00023986        0.00006465
     232         -1.038553        1.000000        0.00017782        0.00002037        0.00004237
     233         -1.038476        1.000000        0.00156895        0.00005321        0.00000746
     234         -1.038152        1.000000        0.00063663        0.00017436        0.00005774
     235         -1.038041        1.000000        0.00412782        0.00031162        0.00006347
     236         -1.036855        1.000000        0.00014654        0.00004329        0.00003032
     237         -1.036488        1.000000        0.00734512        0.00032613        0.00006421
     238         -1.036186        1.000000        0.00009940        0.00003873        0.00005069
     239         -1.036068        1.000000        0.00011508        0.00001527        0.00000717
     240         -1.035757        1.000000        0.00006973        0.00002612        0.00000785
     241         -1.035291        1.000000        0.00029770        0.00002083        0.00000693
     242         -1.035048        1.000000        0.00013366        0.00002394        0.00000486
     243         -1.035000        1.000000        0.00003946        0.00001039        0.00000434
     244         -1.034454        1.000000        0.00003552        0.00001035        0.00000709
     245         -1.034219        1.000000        0.00001010        0.00000690        0.00001348
     246         -1.033874        1.000000        0.00116941        0.00004119        0.00002437
     247         -1.033507        1.000000        0.00125111        0.00007329        0.00005692
     248         -1.033219        1.000000        0.00003127        0.00000527        0.00000469
     249         -1.033056        1.000000        0.00192523        0.00012293        0.00005907
     250         -1.032307        1.000000        0.00001831        0.00000190        0.00000769
     251         -1.031324        1.000000        0.00029950        0.00002817        0.00001821
     252         -1.031144        1.000000        0.00203862        0.00013375        0.00001578
     253         -1.030643        1.000000        0.00090447        0.00005472        0.00000409
     254         -1.030284        1.000000        0.00000398        0.00001312        0.00002014
     255         -1.030062        1.000000        0.00006772        0.00002380        0.00002328
     256         -1.029818        1.000000        0.00002883        0.00000919        0.00001204
     257         -1.028552        1.000000        0.00235722        0.00040245        0.00019465
     258         -1.027578        1.000000        0.00000065        0.00003864        0.00003467
     259         -1.027121        1.000000        0.00006084        0.00000399        0.00000138
     260         -1.026880        1.000000        0.00045271        0.00004753        0.00002366
     261         -1.026226        1.000000        0.00006059        0.00004584        0.00003004
     262         -1.025765        1.000000        0.00088486        0.00017620        0.00009753
     263         -1.025299        1.000000        0.00010612        0.00002409        0.00000655
     264         -1.025158        1.000000        0.00005371        0.00005343        0.00003857
     265         -1.025007        1.000000        0.00001874        0.00001657        0.00001566
     266         -1.024422        1.000000        0.00000995        0.00002225        0.00002165
     267         -1.023793        1.000000        0.00015055        0.00003660        0.00001256
     268         -1.023594        1.000000        0.00000972        0.00000044        0.00000060
     269         -1.023069        1.000000        0.00000950        0.00000817        0.00000776
     270         -1.022603        1.000000        0.00000084        0.00000243        0.00000135
     271         -1.022074        1.000000        0.00001738        0.00000691        0.00000389
     272         -1.021695        1.000000        0.00000266        0.00000066        0.00000010
     273         -1.021372        1.000000        0.00005313        0.00001285        0.00000408
     274         -1.021076        1.000000        0.00000026        0.00000049        0.00000072
     275         -1.019492        1.000000        0.00001716        0.00000418        0.00000242
     276         -1.018003        1.000000        0.00000636        0.00000255        0.00000096
     277         -1.016408        1.000000        0.00000376        0.00000042        0.00000017
     278         -1.016278        1.000000        0.00006984        0.00001535        0.00000830
     279         -1.015338        1.000000        0.00219937        0.00114258        0.00075104
     280         -1.013851        1.000000        0.00001021        0.00000304        0.00000157
     281         -1.010223        1.000000        0.00000694        0.00000224        0.00000160
     282         -1.009666        1.000000        0.00006220        0.00001723        0.00000351
     283         -1.007726        1.000000        0.00000167        0.00000056        0.00000020
     284         -1.007300        1.000000        0.00000703        0.00000358        0.00000106
     285         -1.006916        1.000000        0.00000350        0.00000053        0.00000013
     286         -0.889442        1.000000        0.00000000        0.00000000        0.00000000
     287         -0.869424        1.000000        0.00000000        0.00000000        0.00000000
     288         -0.867225        1.000000        0.00000000        0.00000000        0.00000000
     289         -0.864755        1.000000        0.00000000        0.00000000        0.00000000
     290         -0.860947        1.000000        0.00000000        0.00000000        0.00000000
     291         -0.846899        1.000000        0.00000000        0.00000000        0.00000000
     292         -0.844423        1.000000        0.00000000        0.00000000        0.00000000
     293         -0.843782        1.000000        0.00000000        0.00000000        0.00000000
     294         -0.840445        1.000000        0.00000000        0.00000000        0.00000000
     295         -0.821748        1.000000        0.00000000        0.00000000        0.00000000
     296         -0.818927        1.000000        0.00000000        0.00000000        0.00000000
     297         -0.814033        1.000000        0.00000000        0.00000000        0.00000000
     298         -0.808071        1.000000        0.00000000        0.00000000        0.00000000
     299         -0.807076        1.000000        0.00000000        0.00000000        0.00000000
     300         -0.806003        1.000000        0.00000000        0.00000000        0.00000000
     301         -0.805433        1.000000        0.00000000        0.00000000        0.00000000
     302         -0.803208        1.000000        0.00000000        0.00000000        0.00000000
     303         -0.802271        1.000000        0.00000000        0.00000000        0.00000000
     304         -0.801014        1.000000        0.00000000        0.00000000        0.00000000
     305         -0.800419        1.000000        0.00000000        0.00000000        0.00000000
     306         -0.800163        1.000000        0.00000000        0.00000000        0.00000000
     307         -0.798966        1.000000        0.00000000        0.00000000        0.00000000