# Projected DOS for list 18 of 1 atoms, at iteration step i = 0, E(Fermi) =    -0.245567 a.u.
#     MO Eigenvalue [a.u.]      Occupation                 s                 p                 d
       1         -3.122063        1.000000        0.00000000        0.00000000        0.00000000
       2         -3.121278        1.000000        0.00000000        0.00000000        0.00000000
       3         -3.121021        1.000000        0.00000000        0.00000000        0.00000000
       4         -3.120578        1.000000        0.00000000        0.00000000        0.00000000
       5         -3.120271        1.000000        0.00000000        0.00000000        0.00000000
       6         -3.119857        1.000000        0.00000000        0.00000000        0.00000000
       7         -3.119652        1.000000        0.00000000        0.00000000        0.00000000
       8         -3.119624        1.000000        0.00000000        0.00000000        0.00000000
       9         -3.119219        1.000000        0.00000000        0.00000000        0.00000000
      10         -3.119023        1.000000        0.00000000        0.00000000        0.00000000
      11         -3.118913        1.000000        0.00000000        0.00000000        0.00000000
      12         -3.118874        1.000000        0.00000000        0.00000000        0.00000000
      13         -3.118317        1.000000        0.00000000        0.00000000        0.00000000
      14         -3.118249        1.000000        0.00000000        0.00000000        0.00000000
      15         -3.117895        1.000000        0.00000000        0.00000000        0.00000000
      16         -3.117383        1.000000        0.00000000        0.00000000        0.00000000
      17         -3.117165        1.000000        0.00000000        0.00000000        0.00000000
      18         -3.116815        1.000000        0.00000000        0.00000000        0.00000000
      19         -3.116436        1.000000        0.00000000        0.00000000        0.00000000
      20         -3.116021        1.000000        0.00000000        0.00000000        0.00000000
      21         -3.115852        1.000000        0.00000000        0.00000000        0.00000000
      22         -3.115668        1.000000        0.00000000        0.00000000        0.00000000
      23         -3.115368        1.000000        0.00000000        0.00000000        0.00000000
      24         -3.115339        1.000000        0.00000000        0.00000000        0.00000000
      25         -3.115041        1.000000        0.00000000        0.00000000        0.00000000
      26         -3.114366        1.000000        0.00000000        0.00000000        0.00000000
      27         -3.113951        1.000000        0.00000000        0.00000000        0.00000000
      28         -3.113764        1.000000        0.00000000        0.00000000        0.00000000
      29         -3.112534        1.000000        0.00000000        0.00000000        0.00000000
      30         -3.111679        1.000000        0.00000000        0.00000000        0.00000000
      31         -1.784233        1.000000        0.00000000        0.00000000        0.00000000
      32         -1.782870        1.000000        0.00000000        0.00000000        0.00000000
      33         -1.782324        1.000000        0.00000000        0.00000000        0.00000000
      34         -1.782130        1.000000        0.00000000        0.00000000        0.00000000
      35         -1.781736        1.000000        0.00000000        0.00000000        0.00000000
      36         -1.781230        1.000000        0.00000000        0.00000000        0.00000000
      37         -1.780847        1.000000        0.00000000        0.00000000        0.00000000
      38         -1.780487        1.000000        0.00000000        0.00000000        0.00000000
      39         -1.780184        1.000000        0.00000000        0.00000000        0.00000000
      40         -1.779550        1.000000        0.00000000        0.00000000        0.00000000
      41         -1.779259        1.000000        0.00000000        0.00000000        0.00000000
      42         -1.778921        1.000000        0.00000000        0.00000000        0.00000000
      43         -1.778390        1.000000        0.00000000        0.00000000        0.00000000
      44         -1.778140        1.000000        0.00000000        0.00000000        0.00000000
      45         -1.777912        1.000000        0.00000000        0.00000000        0.00000000
      46         -1.777514        1.000000        0.00000000        0.00000000        0.00000000
      47         -1.777362        1.000000        0.00000000        0.00000000        0.00000000
      48         -1.776787        1.000000        0.00000000        0.00000000        0.00000000
      49         -1.776537        1.000000        0.00000000        0.00000000        0.00000000
      50         -1.776457        1.000000        0.00000000        0.00000000        0.00000000
      51         -1.776029        1.000000        0.00000000        0.00000000        0.00000000
      52         -1.774038        1.000000        0.00000000        0.00000000        0.00000000
      53         -1.773797        1.000000        0.00000000        0.00000000        0.00000000
      54         -1.773665        1.000000        0.00000000        0.00000000        0.00000000
      55         -1.772725        1.000000        0.00000000        0.00000000        0.00000000
      56         -1.772546        1.000000        0.00000000        0.00000000        0.00000000
      57         -1.772041        1.000000        0.00000000        0.00000000        0.00000000
      58         -1.771662        1.000000        0.00000000        0.00000000        0.00000000
      59         -1.771364        1.000000        0.00000000        0.00000000        0.00000000
      60         -1.770813        1.000000        0.00000000        0.00000000        0.00000000
      61         -1.770640        1.000000        0.00000000        0.00000000        0.00000000
      62         -1.770449        1.000000        0.00000000        0.00000000        0.00000000
      63         -1.770188        1.000000        0.00000000        0.00000000        0.00000000
      64         -1.770126        1.000000        0.00000000        0.00000000        0.00000000
      65         -1.769991        1.000000        0.00000000        0.00000000        0.00000000
      66         -1.769845        1.000000        0.00000000        0.00000000        0.00000000
      67         -1.769763        1.000000        0.00000000        0.00000000        0.00000000
      68         -1.769661        1.000000        0.00000000        0.00000000        0.00000000
      69         -1.769465        1.000000        0.00000000        0.00000000        0.00000000
      70         -1.769351        1.000000        0.00000000        0.00000000        0.00000000
      71         -1.769328        1.000000        0.00000000        0.00000000        0.00000000
      72         -1.769216        1.000000        0.00000000        0.00000000        0.00000000
      73         -1.769129        1.000000        0.00000000        0.00000000        0.00000000
      74         -1.769070        1.000000        0.00000000        0.00000000        0.00000000
      75         -1.768941        1.000000        0.00000000        0.00000000        0.00000000
      76         -1.768822        1.000000        0.00000000        0.00000000        0.00000000
      77         -1.768707        1.000000        0.00000000        0.00000000        0.00000000
      78         -1.768585        1.000000        0.00000000        0.00000000        0.00000000
      79         -1.768439        1.000000        0.00000000        0.00000000        0.00000000
      80         -1.768329        1.000000        0.00000000        0.00000000        0.00000000
      81         -1.768089        1.000000        0.00000000        0.00000000        0.00000000
      82         -1.767883        1.000000        0.00000000        0.00000000        0.00000000
      83         -1.767662        1.000000        0.00000000        0.00000000        0.00000000
      84         -1.767495        1.000000        0.00000000        0.00000000        0.00000000
      85         -1.767311        1.000000        0.00000000        0.00000000        0.00000000
      86         -1.767266        1.000000        0.00000000        0.00000000        0.00000000
      87         -1.767060        1.000000        0.00000000        0.00000000        0.00000000
      88         -1.767025        1.000000        0.00000000        0.00000000        0.00000000
      89         -1.766872        1.000000        0.00000000        0.00000000        0.00000000
      90         -1.766524        1.000000        0.00000000        0.00000000        0.00000000
      91         -1.766405        1.000000        0.00000000        0.00000000        0.00000000
      92         -1.766254        1.000000        0.00000000        0.00000000        0.00000000
      93         -1.766123        1.000000        0.00000000        0.00000000        0.00000000
      94         -1.765857        1.000000        0.00000000        0.00000000        0.00000000
      95         -1.765515        1.000000        0.00000000        0.00000000        0.00000000
      96         -1.765181        1.000000        0.00000000        0.00000000        0.00000000
      97         -1.765105        1.000000        0.00000000        0.00000000        0.00000000
      98         -1.764967        1.000000        0.00000000        0.00000000        0.00000000
      99         -1.764710        1.000000        0.00000000        0.00000000        0.00000000
     100         -1.764440        1.000000        0.00000000        0.00000000        0.00000000
     101         -1.764248        1.000000        0.00000000        0.00000000        0.00000000
     102         -1.763945        1.000000        0.00000000        0.00000000        0.00000000
     103         -1.763804        1.000000        0.00000000        0.00000000        0.00000000
     104         -1.763351        1.000000        0.00000000        0.00000000        0.00000000
     105         -1.763205        1.000000        0.00000000        0.00000000        0.00000000
     106         -1.763107        1.000000        0.00000000        0.00000000        0.00000000
     107         -1.762531        1.000000        0.00000000        0.00000000        0.00000000
     108         -1.762343        1.000000        0.00000000        0.00000000        0.00000000
     109         -1.761453        1.000000        0.00000000        0.00000000        0.00000000
     110         -1.760969        1.000000        0.00000000        0.00000000        0.00000000
     111         -1.760481        1.000000        0.00000000        0.00000000        0.00000000
     112         -1.760009        1.000000        0.00000000        0.00000000        0.00000000
     113         -1.759531        1.000000        0.00000000        0.00000000        0.00000000
     114         -1.759105        1.000000        0.00000000        0.00000000        0.00000000
     115         -1.758777        1.000000        0.00000000        0.00000000        0.00000000
     116         -1.757462        1.000000        0.00000000        0.00000000        0.00000000
     117         -1.756221        1.000000        0.00000000        0.00000000        0.00000000
     118         -1.755333        1.000000        0.00000000        0.00000000        0.00000000
     119         -1.754385        1.000000        0.00000000        0.00000000        0.00000000
     120         -1.752742        1.000000        0.00000000        0.00000000        0.00000000
     121         -1.131181        1.000000        0.00064552        0.00002305        0.00001918
     122         -1.128658        1.000000        0.00001796        0.00000501        0.00000127
     123         -1.128000        1.000000        0.00007802        0.00005346        0.00000359
     124         -1.126427        1.000000        0.00200806        0.00033000        0.00007388
     125         -1.120469        1.000000        0.00143565        0.00001567        0.00005833
     126         -1.119202        1.000000        0.00017324        0.00015231        0.00000828
     127         -1.117081        1.000000        0.00224814        0.00008933        0.00006987
     128         -1.116156        1.000000        0.00410269        0.00007093        0.00013090
     129         -1.115054        1.000000        0.00003109        0.00041984        0.00000248
     130         -1.111818        1.000000        0.00013703        0.00005656        0.00000282
     131         -1.111610        1.000000        0.00024203        0.00001261        0.00001359
     132         -1.110976        1.000000        0.00798646        0.00028753        0.00020616
     133         -1.109888        1.000000        0.00024695        0.00032478        0.00000431
     134         -1.108601        1.000000        0.00919532        0.00137261        0.00022786
     135         -1.108036        1.000000        0.00455177        0.00014167        0.00011340
     136         -1.107349        1.000000        0.00001118        0.00023513        0.00000432
     137         -1.106797        1.000000        0.01457243        0.00132413        0.00034174
     138         -1.106077        1.000000        0.00000383        0.00015176        0.00001043
     139         -1.104162        1.000000        0.00136439        0.00004071        0.00004011
     140         -1.102892        1.000000        0.00040262        0.00014954        0.00001420
     141         -1.102196        1.000000        0.00167343        0.00001843        0.00004541
     142         -1.101581        1.000000        0.00002094        0.00005005        0.00004480
     143         -1.101215        1.000000        0.00007227        0.00019659        0.00001220
     144         -1.099602        1.000000        0.00034926        0.00044031        0.00000637
     145         -1.098107        1.000000        0.01874256        0.00046494        0.00026402
     146         -1.097450        1.000000        0.00014402        0.00011927        0.00001852
     147         -1.097046        1.000000        0.00964481        0.00022468        0.00015301
     148         -1.095795        1.000000        0.00008921        0.00028892        0.00001032
     149         -1.095192        1.000000        0.00088123        0.00012989        0.00002738
     150         -1.093515        1.000000        0.00198649        0.00006001        0.00003519
     151         -1.093123        1.000000        0.01647573        0.00084170        0.00021887
     152         -1.092614        1.000000        0.00000155        0.00028287        0.00001173
     153         -1.091821        1.000000        0.00000226        0.00060357        0.00001669
     154         -1.090761        1.000000        0.00378705        0.00072368        0.00006428
     155         -1.090597        1.000000        0.00131739        0.00007812        0.00001609
     156         -1.089544        1.000000        0.00001066        0.00004921        0.00000663
     157         -1.088154        1.000000        0.00442040        0.00006778        0.00007568
     158         -1.086960        1.000000        0.00122587        0.00000929        0.00003046
     159         -1.086718        1.000000        0.00088238        0.00076904        0.00004605
     160         -1.085525        1.000000        0.00077954        0.00003597        0.00000722
     161         -1.084219        1.000000        0.00482898        0.00006808        0.00007865
     162         -1.082734        1.000000        0.00170783        0.00020967        0.00003148
     163         -1.082381        1.000000        0.00219219        0.00078068        0.00002048
     164         -1.080807        1.000000        0.00170535        0.00002580        0.00002568
     165         -1.080293        1.000000        0.00110620        0.00032966        0.00002673
     166         -1.079453        1.000000        0.00056941        0.00007367        0.00006248
     167         -1.078246        1.000000        0.00936287        0.00013828        0.00008985
     168         -1.077774        1.000000        0.01168225        0.00129904        0.00011531
     169         -1.077143        1.000000        0.01754920        0.00034256        0.00021789
     170         -1.076426        1.000000        0.00001599        0.00008160        0.00002214
     171         -1.076145        1.000000        0.00008474        0.00016034        0.00000642
     172         -1.074526        1.000000        0.00228987        0.00005323        0.00001118
     173         -1.074368        1.000000        0.00069215        0.00009006        0.00000776
     174         -1.073652        1.000000        0.00001911        0.00009392        0.00001271
     175         -1.072808        1.000000        0.00127133        0.00052180        0.00002695
     176         -1.072152        1.000000        0.00016759        0.00056477        0.00005998
     177         -1.071192        1.000000        0.00017223        0.00001128        0.00000310
     178         -1.070444        1.000000        0.00003364        0.00021259        0.00001148
     179         -1.070141        1.000000        0.00433639        0.00094177        0.00003161
     180         -1.069416        1.000000        0.00331146        0.00012232        0.00003432
     181         -1.069179        1.000000        0.00234404        0.00070569        0.00001333
     182         -1.067610        1.000000        0.00014506        0.00046241        0.00001578
     183         -1.066240        1.000000        0.00021683        0.00006408        0.00002502
     184         -1.065124        1.000000        0.00852772        0.00014192        0.00004843
     185         -1.064565        1.000000        0.01601872        0.00050071        0.00010494
     186         -1.063575        1.000000        0.01403708        0.00082726        0.00009367
     187         -1.062901        1.000000        0.00016547        0.00006607        0.00003495
     188         -1.062274        1.000000        0.01204118        0.00024484        0.00010451
     189         -1.061481        1.000000        0.00035304        0.00014566        0.00000791
     190         -1.061312        1.000000        0.00707259        0.00060210        0.00001877
     191         -1.060592        1.000000        0.00070518        0.00011779        0.00001859
     192         -1.059297        1.000000        0.00027949        0.00007690        0.00000323
     193         -1.058643        1.000000        0.00090912        0.00037216        0.00003942
     194         -1.058262        1.000000        0.00023574        0.00003531        0.00001573
     195         -1.057127        1.000000        0.00195342        0.00009801        0.00001344
     196         -1.056224        1.000000        0.00060674        0.00001511        0.00000369
     197         -1.056050        1.000000        0.00111599        0.00002435        0.00000547
     198         -1.054881        1.000000        0.00000534        0.00002389        0.00000114
     199         -1.054669        1.000000        0.00062215        0.00008380        0.00001768
     200         -1.053605        1.000000        0.00843346        0.00007132        0.00003750
     201         -1.053457        1.000000        0.00003951        0.00021352        0.00000713
     202         -1.052589        1.000000        0.00017741        0.00001682        0.00001853
     203         -1.052089        1.000000        0.00674383        0.00007698        0.00000510
     204         -1.051299        1.000000        0.00000414        0.00001589        0.00003600
     205         -1.050676        1.000000        0.00079247        0.00010285        0.00004150
     206         -1.050307        1.000000        0.00166996        0.00030419        0.00012524
     207         -1.049921        1.000000        0.00337111        0.00007923        0.00001753
     208         -1.049485        1.000000        0.00056958        0.00008952        0.00003747
     209         -1.049126        1.000000        0.00016902        0.00001333        0.00000322
     210         -1.048445        1.000000        0.00040898        0.00001237        0.00001181
     211         -1.048201        1.000000        0.01219324        0.00013080        0.00003078
     212         -1.047911        1.000000        0.00025793        0.00007036        0.00000987
     213         -1.047620        1.000000        0.00246886        0.00004460        0.00000961
     214         -1.046931        1.000000        0.00016163        0.00000405        0.00000434
     215         -1.046733        1.000000        0.00039095        0.00001311        0.00001350
     216         -1.046634        1.000000        0.00005116        0.00005626        0.00001247
     217         -1.045930        1.000000        0.00371819        0.00007081        0.00000848
     218         -1.045069        1.000000        0.00493614        0.00004572        0.00000761
     219         -1.044350        1.000000        0.00391781        0.00002145        0.00000793
     220         -1.043623        1.000000        0.00039312        0.00015893        0.00002394
     221         -1.043421        1.000000        0.00001895        0.00001700        0.00000062
     222         -1.042778        1.000000        0.00015616        0.00002236        0.00000263
     223         -1.042701        1.000000        0.00116221        0.00010239        0.00001993
     224         -1.042424        1.000000        0.00114283        0.00013734        0.00002475
     225         -1.041682        1.000000        0.00497084        0.00019390        0.00004474
     226         -1.041498        1.000000        0.00282793        0.00008267        0.00001077
     227         -1.040837        1.000000        0.00133626        0.00003086        0.00003002
     228         -1.040496        1.000000        0.00292624        0.00001746        0.00002518
     229         -1.040151        1.000000        0.00039142        0.00011556        0.00002498
     230         -1.039686        1.000000        0.00004721        0.00007000        0.00000376
     231         -1.038961        1.000000        0.00002528        0.00003282        0.00000292
     232         -1.038553        1.000000        0.00054116        0.00001534        0.00001215
     233         -1.038476        1.000000        0.01477391        0.00021486        0.00004601
     234         -1.038152        1.000000        0.01332655        0.00007197        0.00005620
     235         -1.038041        1.000000        0.01114158        0.00006240        0.00002940
     236         -1.036855        1.000000        0.01491299        0.00010461        0.00002027
     237         -1.036488        1.000000        0.00019926        0.00005150        0.00001218
     238         -1.036186        1.000000        0.00004185        0.00001850        0.00000625
     239         -1.036068        1.000000        0.00000721        0.00007110        0.00003345
     240         -1.035757        1.000000        0.00105095        0.00006807        0.00005573
     241         -1.035291        1.000000        0.00996118        0.00009075        0.00003065
     242         -1.035048        1.000000        0.00452905        0.00025158        0.00004048
     243         -1.035000        1.000000        0.00552950        0.00006344        0.00000496
     244         -1.034454        1.000000        0.00194717        0.00002041        0.00001594
     245         -1.034219        1.000000        0.00019277        0.00002052        0.00000615
     246         -1.033874        1.000000        0.00544914        0.00007543        0.00006500
     247         -1.033507        1.000000        0.00240599        0.00001629        0.00000377
     248         -1.033219        1.000000        0.05157508        0.00033693        0.00004162
     249         -1.033056        1.000000        0.00576126        0.00006083        0.00002079
     250         -1.032307        1.000000        0.07767024        0.00063197        0.00003143
     251         -1.031324        1.000000        0.00884320        0.00006504        0.00001292
     252         -1.031144        1.000000        0.00236462        0.00001331        0.00000662
     253         -1.030643        1.000000        0.00196391        0.00002104        0.00001414
     254         -1.030284        1.000000        0.00004452        0.00000964        0.00001767
     255         -1.030062        1.000000        0.00000733        0.00000485        0.00000241
     256         -1.029818        1.000000        0.00165421        0.00004371        0.00003990
     257         -1.028552        1.000000        0.00108619        0.00001230        0.00000275
     258         -1.027578        1.000000        0.00004517        0.00000089        0.00000072
     259         -1.027121        1.000000        0.00827851        0.00051460        0.00057532
     260         -1.026880        1.000000        0.00115132        0.00002679        0.00002143
     261         -1.026226        1.000000        0.00005657        0.00001619        0.00001006
     262         -1.025765        1.000000        0.00005189        0.00000996        0.00002108
     263         -1.025299        1.000000        0.00006486        0.00000225        0.00000383
     264         -1.025158        1.000000        0.00178571        0.00021363        0.00015042
     265         -1.025007        1.000000        0.00078009        0.00011522        0.00014976
     266         -1.024422        1.000000        0.00006380        0.00000819        0.00001187
     267         -1.023793        1.000000        0.00001843        0.00001870        0.00001330
     268         -1.023594        1.000000        0.00176587        0.00015010        0.00010476
     269         -1.023069        1.000000        0.00010252        0.00011178        0.00006599
     270         -1.022603        1.000000        0.00087592        0.00003361        0.00002102
     271         -1.022074        1.000000        0.00014911        0.00000836        0.00000438
     272         -1.021695        1.000000        0.00008980        0.00011764        0.00009234
     273         -1.021372        1.000000        0.00000155        0.00000293        0.00000273
     274         -1.021076        1.000000        0.00004449        0.00001906        0.00001109
     275         -1.019492        1.000000        0.00003775        0.00000641        0.00000155
     276         -1.018003        1.000000        0.00144789        0.00006156        0.00001742
     277         -1.016408        1.000000        0.00000049        0.00000273        0.00000188
     278         -1.016278        1.000000        0.00040639        0.00000493        0.00000960
     279         -1.015338        1.000000        0.00001514        0.00000035        0.00000014
     280         -1.013851        1.000000        0.00007055        0.00000423        0.00000057
     281         -1.010223        1.000000        0.00000005        0.00000001        0.00000004
     282         -1.009666        1.000000        0.00000001        0.00000003        0.00000009
     283         -1.007726        1.000000        0.00000045        0.00000066        0.00000018
     284         -1.007300        1.000000        0.00001224        0.00000030        0.00000035
     285         -1.006916        1.000000        0.00000650        0.00000017        0.00000025
     286         -0.889442        1.000000        0.00000000        0.00000000        0.00000000
     287         -0.869424        1.000000        0.00000000        0.00000000        0.00000000
     288         -0.867225        1.000000        0.00000000        0.00000000        0.00000000
     289         -0.864755        1.000000        0.00000000        0.00000000        0.00000000
     290         -0.860947        1.000000        0.00000000        0.00000000        0.00000000
     291         -0.846899        1.000000        0.00000000        0.00000000        0.00000000
     292         -0.844423        1.000000        0.00000000        0.00000000        0.00000000
     293         -0.843782        1.000000        0.00000000        0.00000000        0.00000000
     294         -0.840445        1.000000        0.00000000        0.00000000        0.00000000
     295         -0.821748        1.000000        0.00000000        0.00000000        0.00000000
     296         -0.818927        1.000000        0.00000000        0.00000000        0.00000000
     297         -0.814033        1.000000        0.00000000        0.00000000        0.00000000
     298         -0.808071        1.000000        0.00000000        0.00000000        0.00000000
     299         -0.807076        1.000000        0.00000000        0.00000000        0.00000000
     300         -0.806003        1.000000        0.00000000        0.00000000        0.00000000
     301         -0.805433        1.000000        0.00000000        0.00000000        0.00000000
     302         -0.803208        1.000000        0.00000000        0.00000000        0.00000000
     303         -0.802271        1.000000        0.00000000        0.00000000        0.00000000
     304         -0.801014        1.000000        0.00000000        0.00000000        0.00000000
     305         -0.800419        1.000000        0.00000000        0.00000000        0.00000000
     306         -0.800163        1.000000        0.00000000        0.00000000        0.00000000
     307         -0.798966        1.000000        0.00000000        0.00000000        0.00000000