# Projected DOS for list 363 of 1 atoms, at iteration step i = 0, E(Fermi) =    -0.245567 a.u.
#     MO Eigenvalue [a.u.]      Occupation                 s                 p
       1         -3.122063        1.000000        0.00000087        0.00000906
       2         -3.121278        1.000000        0.00000509        0.00003383
       3         -3.121021        1.000000        0.00000968        0.00004480
       4         -3.120578        1.000000        0.00001530        0.00008486
       5         -3.120271        1.000000        0.00001443        0.00009912
       6         -3.119857        1.000000        0.00000006        0.00000563
       7         -3.119652        1.000000        0.00000122        0.00000499
       8         -3.119624        1.000000        0.00000427        0.00001678
       9         -3.119219        1.000000        0.00000608        0.00003660
      10         -3.119023        1.000000        0.00000247        0.00000286
      11         -3.118913        1.000000        0.00000444        0.00000756
      12         -3.118874        1.000000        0.00000107        0.00000866
      13         -3.118317        1.000000        0.00000146        0.00001571
      14         -3.118249        1.000000        0.00000252        0.00000326
      15         -3.117895        1.000000        0.00000008        0.00000002
      16         -3.117383        1.000000        0.00000025        0.00000011
      17         -3.117165        1.000000        0.00000000        0.00000004
      18         -3.116815        1.000000        0.00000003        0.00000005
      19         -3.116436        1.000000        0.00000002        0.00000005
      20         -3.116021        1.000000        0.00000001        0.00000004
      21         -3.115852        1.000000        0.00000000        0.00000037
      22         -3.115668        1.000000        0.00000024        0.00000565
      23         -3.115368        1.000000        0.00000024        0.00000123
      24         -3.115339        1.000000        0.00000081        0.00000327
      25         -3.115041        1.000000        0.00000676        0.00003104
      26         -3.114366        1.000000        0.00000008        0.00000013
      27         -3.113951        1.000000        0.00000127        0.00001006
      28         -3.113764        1.000000        0.00000001        0.00000003
      29         -3.112534        1.000000        0.00000026        0.00000031
      30         -3.111679        1.000000        0.00000000        0.00000000
      31         -1.784233        1.000000        0.00000122        0.00000393
      32         -1.782870        1.000000        0.00000060        0.00000450
      33         -1.782324        1.000000        0.00000048        0.00000201
      34         -1.782130        1.000000        0.00000005        0.00000107
      35         -1.781736        1.000000        0.00000001        0.00000032
      36         -1.781230        1.000000        0.00000032        0.00000022
      37         -1.780847        1.000000        0.00000033        0.00000074
      38         -1.780487        1.000000        0.00000029        0.00000122
      39         -1.780184        1.000000        0.00000002        0.00000032
      40         -1.779550        1.000000        0.00000000        0.00000188
      41         -1.779259        1.000000        0.00000003        0.00000006
      42         -1.778921        1.000000        0.00000046        0.00000224
      43         -1.778390        1.000000        0.00000025        0.00000090
      44         -1.778140        1.000000        0.00000021        0.00000014
      45         -1.777912        1.000000        0.00000002        0.00000081
      46         -1.777514        1.000000        0.00000059        0.00000129
      47         -1.777362        1.000000        0.00000013        0.00000121
      48         -1.776787        1.000000        0.00000018        0.00000026
      49         -1.776537        1.000000        0.00000010        0.00000087
      50         -1.776457        1.000000        0.00000058        0.00000139
      51         -1.776029        1.000000        0.00000004        0.00000023
      52         -1.774038        1.000000        0.00000016        0.00000210
      53         -1.773797        1.000000        0.00000008        0.00000934
      54         -1.773665        1.000000        0.00000037        0.00000133
      55         -1.772725        1.000000        0.00000003        0.00000113
      56         -1.772546        1.000000        0.00000005        0.00000059
      57         -1.772041        1.000000        0.00000032        0.00000467
      58         -1.771662        1.000000        0.00000005        0.00000054
      59         -1.771364        1.000000        0.00000010        0.00000013
      60         -1.770813        1.000000        0.00000008        0.00000071
      61         -1.770640        1.000000        0.00000161        0.00000052
      62         -1.770449        1.000000        0.00000001        0.00000043
      63         -1.770188        1.000000        0.00000011        0.00000078
      64         -1.770126        1.000000        0.00000004        0.00000044
      65         -1.769991        1.000000        0.00000008        0.00000083
      66         -1.769845        1.000000        0.00000008        0.00000236
      67         -1.769763        1.000000        0.00000061        0.00000142
      68         -1.769661        1.000000        0.00000013        0.00000049
      69         -1.769465        1.000000        0.00000026        0.00000138
      70         -1.769351        1.000000        0.00000000        0.00000015
      71         -1.769328        1.000000        0.00000009        0.00000023
      72         -1.769216        1.000000        0.00000015        0.00000021
      73         -1.769129        1.000000        0.00000077        0.00000094
      74         -1.769070        1.000000        0.00000011        0.00000038
      75         -1.768941        1.000000        0.00000092        0.00000025
      76         -1.768822        1.000000        0.00000000        0.00000011
      77         -1.768707        1.000000        0.00000060        0.00000104
      78         -1.768585        1.000000        0.00000013        0.00000011
      79         -1.768439        1.000000        0.00000016        0.00000014
      80         -1.768329        1.000000        0.00000000        0.00000017
      81         -1.768089        1.000000        0.00000005        0.00000011
      82         -1.767883        1.000000        0.00000002        0.00000002
      83         -1.767662        1.000000        0.00000002        0.00000003
      84         -1.767495        1.000000        0.00000007        0.00000001
      85         -1.767311        1.000000        0.00000009        0.00000016
      86         -1.767266        1.000000        0.00000031        0.00000053
      87         -1.767060        1.000000        0.00000005        0.00000024
      88         -1.767025        1.000000        0.00000010        0.00000017
      89         -1.766872        1.000000        0.00000002        0.00000005
      90         -1.766524        1.000000        0.00000000        0.00000004
      91         -1.766405        1.000000        0.00000026        0.00000025
      92         -1.766254        1.000000        0.00000001        0.00000006
      93         -1.766123        1.000000        0.00000001        0.00000010
      94         -1.765857        1.000000        0.00000007        0.00000018
      95         -1.765515        1.000000        0.00000000        0.00000006
      96         -1.765181        1.000000        0.00000002        0.00000016
      97         -1.765105        1.000000        0.00000001        0.00000003
      98         -1.764967        1.000000        0.00000031        0.00000035
      99         -1.764710        1.000000        0.00000005        0.00000007
     100         -1.764440        1.000000        0.00000003        0.00000018
     101         -1.764248        1.000000        0.00000015        0.00000013
     102         -1.763945        1.000000        0.00000009        0.00000019
     103         -1.763804        1.000000        0.00000005        0.00000010
     104         -1.763351        1.000000        0.00000001        0.00000009
     105         -1.763205        1.000000        0.00000034        0.00000037
     106         -1.763107        1.000000        0.00000021        0.00000044
     107         -1.762531        1.000000        0.00000003        0.00000030
     108         -1.762343        1.000000        0.00000000        0.00000016
     109         -1.761453        1.000000        0.00000002        0.00000003
     110         -1.760969        1.000000        0.00000001        0.00000007
     111         -1.760481        1.000000        0.00000011        0.00000016
     112         -1.760009        1.000000        0.00000003        0.00000038
     113         -1.759531        1.000000        0.00000000        0.00000001
     114         -1.759105        1.000000        0.00000000        0.00000002
     115         -1.758777        1.000000        0.00000000        0.00000007
     116         -1.757462        1.000000        0.00000001        0.00000002
     117         -1.756221        1.000000        0.00000001        0.00000001
     118         -1.755333        1.000000        0.00000000        0.00000001
     119         -1.754385        1.000000        0.00000001        0.00000001
     120         -1.752742        1.000000        0.00000000        0.00000000
     121         -1.131181        1.000000        0.00001000        0.00002496
     122         -1.128658        1.000000        0.00000558        0.00001262
     123         -1.128000        1.000000        0.00000980        0.00002179
     124         -1.126427        1.000000        0.00000011        0.00000029
     125         -1.120469        1.000000        0.00000133        0.00000292
     126         -1.119202        1.000000        0.00000200        0.00000425
     127         -1.117081        1.000000        0.00000710        0.00001114
     128         -1.116156        1.000000        0.00002835        0.00004235
     129         -1.115054        1.000000        0.00005377        0.00009621
     130         -1.111818        1.000000        0.00009394        0.00012855
     131         -1.111610        1.000000        0.00020494        0.00028551
     132         -1.110976        1.000000        0.00005918        0.00008535
     133         -1.109888        1.000000        0.00012659        0.00019283
     134         -1.108601        1.000000        0.00000370        0.00000917
     135         -1.108036        1.000000        0.00000920        0.00001676
     136         -1.107349        1.000000        0.00000286        0.00000809
     137         -1.106797        1.000000        0.00000758        0.00001100
     138         -1.106077        1.000000        0.00020442        0.00026013
     139         -1.104162        1.000000        0.00007132        0.00008603
     140         -1.102892        1.000000        0.00002787        0.00004164
     141         -1.102196        1.000000        0.00000827        0.00001087
     142         -1.101581        1.000000        0.00001737        0.00002130
     143         -1.101215        1.000000        0.00003642        0.00004223
     144         -1.099602        1.000000        0.00000493        0.00001559
     145         -1.098107        1.000000        0.00000230        0.00001226
     146         -1.097450        1.000000        0.00000327        0.00001080
     147         -1.097046        1.000000        0.00001003        0.00001947
     148         -1.095795        1.000000        0.00010209        0.00009606
     149         -1.095192        1.000000        0.00000008        0.00000718
     150         -1.093515        1.000000        0.00000430        0.00001633
     151         -1.093123        1.000000        0.00000047        0.00000628
     152         -1.092614        1.000000        0.00001152        0.00001667
     153         -1.091821        1.000000        0.00000058        0.00000775
     154         -1.090761        1.000000        0.00000022        0.00003959
     155         -1.090597        1.000000        0.00000257        0.00001013
     156         -1.089544        1.000000        0.00000109        0.00000136
     157         -1.088154        1.000000        0.00000044        0.00002013
     158         -1.086960        1.000000        0.00001484        0.00001790
     159         -1.086718        1.000000        0.00000026        0.00001894
     160         -1.085525        1.000000        0.00004306        0.00004307
     161         -1.084219        1.000000        0.00007828        0.00004935
     162         -1.082734        1.000000        0.00001387        0.00001286
     163         -1.082381        1.000000        0.00017092        0.00010981
     164         -1.080807        1.000000        0.00017110        0.00011115
     165         -1.080293        1.000000        0.00054349        0.00034534
     166         -1.079453        1.000000        0.00002736        0.00002228
     167         -1.078246        1.000000        0.00000022        0.00000656
     168         -1.077774        1.000000        0.00084223        0.00049507
     169         -1.077143        1.000000        0.00005541        0.00003483
     170         -1.076426        1.000000        0.00003764        0.00003242
     171         -1.076145        1.000000        0.00016927        0.00010061
     172         -1.074526        1.000000        0.00029816        0.00016867
     173         -1.074368        1.000000        0.00029886        0.00019237
     174         -1.073652        1.000000        0.00057765        0.00033693
     175         -1.072808        1.000000        0.00009275        0.00005335
     176         -1.072152        1.000000        0.00000810        0.00000577
     177         -1.071192        1.000000        0.00038440        0.00024585
     178         -1.070444        1.000000        0.00011540        0.00007813
     179         -1.070141        1.000000        0.00045567        0.00026929
     180         -1.069416        1.000000        0.00008772        0.00005482
     181         -1.069179        1.000000        0.00068236        0.00037772
     182         -1.067610        1.000000        0.00015753        0.00008335
     183         -1.066240        1.000000        0.00002290        0.00002088
     184         -1.065124        1.000000        0.00082144        0.00042310
     185         -1.064565        1.000000        0.00242025        0.00126839
     186         -1.063575        1.000000        0.00514915        0.00259932
     187         -1.062901        1.000000        0.00454399        0.00231596
     188         -1.062274        1.000000        0.00403567        0.00203129
     189         -1.061481        1.000000        0.00086789        0.00041851
     190         -1.061312        1.000000        0.00647631        0.00318227
     191         -1.060592        1.000000        0.00025264        0.00013365
     192         -1.059297        1.000000        0.00115673        0.00057071
     193         -1.058643        1.000000        0.00877971        0.00419614
     194         -1.058262        1.000000        0.00013963        0.00006313
     195         -1.057127        1.000000        0.00142875        0.00067983
     196         -1.056224        1.000000        0.00999436        0.00464173
     197         -1.056050        1.000000        0.00048070        0.00022241
     198         -1.054881        1.000000        0.01402720        0.00640790
     199         -1.054669        1.000000        0.00484090        0.00221863
     200         -1.053605        1.000000        0.00035965        0.00016435
     201         -1.053457        1.000000        0.00255177        0.00115981
     202         -1.052589        1.000000        0.00570799        0.00254978
     203         -1.052089        1.000000        0.00041732        0.00018535
     204         -1.051299        1.000000        0.00016467        0.00007273
     205         -1.050676        1.000000        0.00041713        0.00020329
     206         -1.050307        1.000000        0.00500258        0.00223769
     207         -1.049921        1.000000        0.00015106        0.00006507
     208         -1.049485        1.000000        0.00010896        0.00006378
     209         -1.049126        1.000000        0.00055432        0.00025621
     210         -1.048445        1.000000        0.00018747        0.00008631
     211         -1.048201        1.000000        0.00066998        0.00029305
     212         -1.047911        1.000000        0.00014081        0.00006610
     213         -1.047620        1.000000        0.00364011        0.00155113
     214         -1.046931        1.000000        0.00000859        0.00003409
     215         -1.046733        1.000000        0.00059453        0.00026383
     216         -1.046634        1.000000        0.00024908        0.00016219
     217         -1.045930        1.000000        0.00001438        0.00000944
     218         -1.045069        1.000000        0.00118359        0.00058720
     219         -1.044350        1.000000        0.00063343        0.00026973
     220         -1.043623        1.000000        0.00180757        0.00079812
     221         -1.043421        1.000000        0.01270519        0.00553667
     222         -1.042778        1.000000        0.00007111        0.00003740
     223         -1.042701        1.000000        0.00310208        0.00127744
     224         -1.042424        1.000000        0.00541094        0.00220876
     225         -1.041682        1.000000        0.00007361        0.00002796
     226         -1.041498        1.000000        0.00000081        0.00001161
     227         -1.040837        1.000000        0.00327564        0.00132440
     228         -1.040496        1.000000        0.00018206        0.00007258
     229         -1.040151        1.000000        0.00648257        0.00256050
     230         -1.039686        1.000000        0.00092076        0.00035932
     231         -1.038961        1.000000        0.00256449        0.00101252
     232         -1.038553        1.000000        0.00083462        0.00031344
     233         -1.038476        1.000000        0.00360626        0.00139368
     234         -1.038152        1.000000        0.00027256        0.00011249
     235         -1.038041        1.000000        0.00001638        0.00000945
     236         -1.036855        1.000000        0.00637953        0.00241534
     237         -1.036488        1.000000        0.00405880        0.00150529
     238         -1.036186        1.000000        0.00074850        0.00029128
     239         -1.036068        1.000000        0.00025484        0.00009878
     240         -1.035757        1.000000        0.00004607        0.00007139
     241         -1.035291        1.000000        0.00237437        0.00088105
     242         -1.035048        1.000000        0.00024258        0.00010463
     243         -1.035000        1.000000        0.00000118        0.00000791
     244         -1.034454        1.000000        0.00163467        0.00059781
     245         -1.034219        1.000000        0.00251909        0.00091709
     246         -1.033874        1.000000        0.00565250        0.00209905
     247         -1.033507        1.000000        0.00016794        0.00006367
     248         -1.033219        1.000000        0.00426913        0.00156840
     249         -1.033056        1.000000        0.00202033        0.00073459
     250         -1.032307        1.000000        0.00234627        0.00085714
     251         -1.031324        1.000000        0.00483331        0.00175313
     252         -1.031144        1.000000        0.00049377        0.00017502
     253         -1.030643        1.000000        0.00050081        0.00018827
     254         -1.030284        1.000000        0.00183674        0.00064258
     255         -1.030062        1.000000        0.00132513        0.00045958
     256         -1.029818        1.000000        0.00012437        0.00004687
     257         -1.028552        1.000000        0.00000290        0.00000618
     258         -1.027578        1.000000        0.00035400        0.00013903
     259         -1.027121        1.000000        0.00002649        0.00000920
     260         -1.026880        1.000000        0.00069159        0.00024075
     261         -1.026226        1.000000        0.00009069        0.00003169
     262         -1.025765        1.000000        0.00001489        0.00000536
     263         -1.025299        1.000000        0.00000432        0.00000150
     264         -1.025158        1.000000        0.00000018        0.00000019
     265         -1.025007        1.000000        0.00009170        0.00003205
     266         -1.024422        1.000000        0.00002449        0.00001032
     267         -1.023793        1.000000        0.00000517        0.00000202
     268         -1.023594        1.000000        0.00000007        0.00000006
     269         -1.023069        1.000000        0.00011607        0.00004137
     270         -1.022603        1.000000        0.00001921        0.00000706
     271         -1.022074        1.000000        0.00000451        0.00000298
     272         -1.021695        1.000000        0.00000500        0.00000187
     273         -1.021372        1.000000        0.00000062        0.00000022
     274         -1.021076        1.000000        0.00007615        0.00002479
     275         -1.019492        1.000000        0.00222078        0.00076322
     276         -1.018003        1.000000        0.00001378        0.00000505
     277         -1.016408        1.000000        0.00000005        0.00000048
     278         -1.016278        1.000000        0.00000148        0.00000055
     279         -1.015338        1.000000        0.00002041        0.00001010
     280         -1.013851        1.000000        0.00000083        0.00000022
     281         -1.010223        1.000000        0.00043919        0.00014042
     282         -1.009666        1.000000        0.00000002        0.00000001
     283         -1.007726        1.000000        0.00000237        0.00000080
     284         -1.007300        1.000000        0.00000314        0.00000094
     285         -1.006916        1.000000        0.00000003        0.00000001
     286         -0.889442        1.000000        0.00008105        0.00078710
     287         -0.869424        1.000000        0.00006224        0.00041986
     288         -0.867225        1.000000        0.00003959        0.00049404
     289         -0.864755        1.000000        0.00015438        0.00094144
     290         -0.860947        1.000000        0.00007758        0.00060977
     291         -0.846899        1.000000        0.00022155        0.00107645
     292         -0.844423        1.000000        0.00002803        0.00023288
     293         -0.843782        1.000000        0.00002465        0.00020517
     294         -0.840445        1.000000        0.00002666        0.00017967
     295         -0.821748        1.000000        0.00010910        0.00056060
     296         -0.818927        1.000000        0.00002128        0.00019070
     297         -0.814033        1.000000        0.00023476        0.00097823
     298         -0.808071        1.000000        0.00042673        0.00176507
     299         -0.807076        1.000000        0.00009289        0.00043957
     300         -0.806003        1.000000        0.00000771        0.00003011
     301         -0.805433        1.000000        0.00012794        0.00037876
     302         -0.803208        1.000000        0.00006502        0.00031132
     303         -0.802271        1.000000        0.00011501        0.00045383
     304         -0.801014        1.000000        0.00002608        0.00034150
     305         -0.800419        1.000000        0.00004829        0.00029399
     306         -0.800163        1.000000        0.00001867        0.00009579
     307         -0.798966        1.000000        0.00000167        0.00013983
     308         -0.796270        1.000000        0.00000027        0.00001437
     309         -0.795746        1.000000        0.00003159        0.00027151
     310         -0.794333        1.000000        0.00020445        0.00067116
     311         -0.792293        1.000000        0.00001637        0.00019050
     312         -0.791548        1.000000        0.00001269        0.00009133
     313         -0.790603        1.000000        0.00003073        0.00009966
     314         -0.790424        1.000000        0.00000698        0.00012724
     315         -0.789930        1.000000        0.00013122        0.00037860
     316         -0.788450        1.000000        0.00000218        0.00003602
     317         -0.787526        1.000000        0.00000129        0.00003416
     318         -0.786788        1.000000        0.00000541        0.00014824
     319         -0.781836        1.000000        0.00003926        0.00030130
     320         -0.780998        1.000000        0.00002478        0.00007587
     321         -0.780477        1.000000        0.00001944        0.00013152
     322         -0.779060        1.000000        0.00001585        0.00007788
     323         -0.778943        1.000000        0.00002206        0.00020234
     324         -0.777233        1.000000        0.00000648        0.00033021
     325         -0.775897        1.000000        0.00005300        0.00015343
     326         -0.774887        1.000000        0.00000146        0.00014839
     327         -0.773671        1.000000        0.00000634        0.00006003
     328         -0.773422        1.000000        0.00001999        0.00004736
     329         -0.772414        1.000000        0.00001094        0.00003123
     330         -0.771266        1.000000        0.00000118        0.00000480
     331         -0.770604        1.000000        0.00004023        0.00006281
     332         -0.769886        1.000000        0.00000008        0.00001096
     333         -0.769439        1.000000        0.00000068        0.00005081
     334         -0.769009        1.000000        0.00000824        0.00000583
     335         -0.767483        1.000000        0.00003104        0.00008231
     336         -0.766717        1.000000        0.00001267        0.00007064
     337         -0.765490        1.000000        0.00003668        0.00008193
     338         -0.763700        1.000000        0.00003808        0.00008721
     339         -0.762625        1.000000        0.00001659        0.00006164
     340         -0.761653        1.000000        0.00001013        0.00004053
     341         -0.761196        1.000000        0.00000011        0.00001943
     342         -0.759265        1.000000        0.00006094        0.00015892
     343         -0.758410        1.000000        0.00003163        0.00008707
     344         -0.755260        1.000000        0.00000037        0.00000287
     345         -0.754586        1.000000        0.00000010        0.00000124
     346         -0.703685        1.000000        0.00000251        0.00000128
     347         -0.693847        1.000000        0.00000258        0.00000088
     348         -0.690060        1.000000        0.00000696        0.00000441
     349         -0.688902        1.000000        0.00000108        0.00000167
     350         -0.684111        1.000000        0.00000711        0.00000489
     351         -0.681092        1.000000        0.00000004        0.00000090
     352         -0.678905        1.000000        0.00000325        0.00000361
     353         -0.676982        1.000000        0.00000350        0.00000071
     354         -0.673929        1.000000        0.00000443        0.00000580
     355         -0.673106        1.000000        0.00000157        0.00000299
     356         -0.670728        1.000000        0.00001075        0.00000627
     357         -0.670092        1.000000        0.00000991        0.00000907
     358         -0.669168        1.000000        0.00000814        0.00000738
     359         -0.667801        1.000000        0.00000735        0.00000639
     360         -0.665884        1.000000        0.00000049        0.00000124
     361         -0.664702        1.000000        0.00000024        0.00000089
     362         -0.662263        1.000000        0.00000882        0.00000531
     363         -0.660875        1.000000        0.00003930        0.00003423
     364         -0.658191        1.000000        0.00000292        0.00000123
     365         -0.657373        1.000000        0.00000037        0.00000011
     366         -0.655967        1.000000        0.00001020        0.00002235
     367         -0.655536        1.000000        0.00000242        0.00000386
     368         -0.653752        1.000000        0.00001034        0.00000352
     369         -0.651127        1.000000        0.00000042        0.00000214
     370         -0.648938        1.000000        0.00000010        0.00000164
     371         -0.647875        1.000000        0.00000255        0.00000400
     372         -0.644925        1.000000        0.00004004        0.00003096
     373         -0.644581        1.000000        0.00004066        0.00002327
     374         -0.641910        1.000000        0.00000147        0.00000186
     375         -0.641212        1.000000        0.00002262        0.00002735
     376         -0.639876        1.000000        0.00000297        0.00000211
     377         -0.637901        1.000000        0.00000731        0.00000434