# Projected DOS for list 141 of 1 atoms, at iteration step i = 0, E(Fermi) =    -0.245567 a.u.
#     MO Eigenvalue [a.u.]      Occupation                 s                 p                 d
       1         -3.122063        1.000000        0.00000004        0.00000000        0.00000000
       2         -3.121278        1.000000        0.00000002        0.00000002        0.00000000
       3         -3.121021        1.000000        0.00000001        0.00000000        0.00000000
       4         -3.120578        1.000000        0.00000001        0.00000000        0.00000000
       5         -3.120271        1.000000        0.00000001        0.00000000        0.00000000
       6         -3.119857        1.000000        0.00000000        0.00000000        0.00000000
       7         -3.119652        1.000000        0.00000000        0.00000000        0.00000000
       8         -3.119624        1.000000        0.00000000        0.00000000        0.00000000
       9         -3.119219        1.000000        0.00000000        0.00000001        0.00000000
      10         -3.119023        1.000000        0.00000000        0.00000000        0.00000000
      11         -3.118913        1.000000        0.00000000        0.00000000        0.00000000
      12         -3.118874        1.000000        0.00000000        0.00000000        0.00000000
      13         -3.118317        1.000000        0.00000000        0.00000000        0.00000000
      14         -3.118249        1.000000        0.00000000        0.00000000        0.00000000
      15         -3.117895        1.000000        0.00000000        0.00000000        0.00000000
      16         -3.117383        1.000000        0.00000000        0.00000000        0.00000000
      17         -3.117165        1.000000        0.00000000        0.00000000        0.00000000
      18         -3.116815        1.000000        0.00000000        0.00000000        0.00000000
      19         -3.116436        1.000000        0.00000000        0.00000000        0.00000000
      20         -3.116021        1.000000        0.00000001        0.00000000        0.00000000
      21         -3.115852        1.000000        0.00000000        0.00000000        0.00000000
      22         -3.115668        1.000000        0.00000000        0.00000000        0.00000000
      23         -3.115368        1.000000        0.00000000        0.00000000        0.00000000
      24         -3.115339        1.000000        0.00000000        0.00000000        0.00000000
      25         -3.115041        1.000000        0.00000000        0.00000000        0.00000000
      26         -3.114366        1.000000        0.00000000        0.00000000        0.00000000
      27         -3.113951        1.000000        0.00000000        0.00000000        0.00000000
      28         -3.113764        1.000000        0.00000000        0.00000000        0.00000000
      29         -3.112534        1.000000        0.00000000        0.00000000        0.00000000
      30         -3.111679        1.000000        0.00000000        0.00000000        0.00000000
      31         -1.784233        1.000000        0.00000000        0.00000000        0.00000000
      32         -1.782870        1.000000        0.00000000        0.00000000        0.00000000
      33         -1.782324        1.000000        0.00000000        0.00000000        0.00000000
      34         -1.782130        1.000000        0.00000000        0.00000000        0.00000000
      35         -1.781736        1.000000        0.00000000        0.00000000        0.00000000
      36         -1.781230        1.000000        0.00000000        0.00000000        0.00000000
      37         -1.780847        1.000000        0.00000000        0.00000000        0.00000000
      38         -1.780487        1.000000        0.00000000        0.00000000        0.00000000
      39         -1.780184        1.000000        0.00000000        0.00000000        0.00000000
      40         -1.779550        1.000000        0.00000000        0.00000000        0.00000000
      41         -1.779259        1.000000        0.00000000        0.00000000        0.00000000
      42         -1.778921        1.000000        0.00000000        0.00000000        0.00000000
      43         -1.778390        1.000000        0.00000000        0.00000000        0.00000000
      44         -1.778140        1.000000        0.00000000        0.00000000        0.00000000
      45         -1.777912        1.000000        0.00000000        0.00000000        0.00000000
      46         -1.777514        1.000000        0.00000000        0.00000000        0.00000000
      47         -1.777362        1.000000        0.00000000        0.00000000        0.00000000
      48         -1.776787        1.000000        0.00000000        0.00000000        0.00000000
      49         -1.776537        1.000000        0.00000000        0.00000000        0.00000000
      50         -1.776457        1.000000        0.00000000        0.00000000        0.00000000
      51         -1.776029        1.000000        0.00000000        0.00000000        0.00000000
      52         -1.774038        1.000000        0.00000000        0.00000000        0.00000000
      53         -1.773797        1.000000        0.00000000        0.00000000        0.00000000
      54         -1.773665        1.000000        0.00000000        0.00000000        0.00000000
      55         -1.772725        1.000000        0.00000000        0.00000000        0.00000000
      56         -1.772546        1.000000        0.00000000        0.00000000        0.00000000
      57         -1.772041        1.000000        0.00000000        0.00000000        0.00000000
      58         -1.771662        1.000000        0.00000000        0.00000000        0.00000000
      59         -1.771364        1.000000        0.00000000        0.00000000        0.00000000
      60         -1.770813        1.000000        0.00000000        0.00000000        0.00000000
      61         -1.770640        1.000000        0.00000000        0.00000000        0.00000000
      62         -1.770449        1.000000        0.00000000        0.00000000        0.00000000
      63         -1.770188        1.000000        0.00000000        0.00000000        0.00000000
      64         -1.770126        1.000000        0.00000000        0.00000000        0.00000000
      65         -1.769991        1.000000        0.00000000        0.00000000        0.00000000
      66         -1.769845        1.000000        0.00000000        0.00000000        0.00000000
      67         -1.769763        1.000000        0.00000000        0.00000000        0.00000000
      68         -1.769661        1.000000        0.00000000        0.00000000        0.00000000
      69         -1.769465        1.000000        0.00000000        0.00000000        0.00000000
      70         -1.769351        1.000000        0.00000000        0.00000000        0.00000000
      71         -1.769328        1.000000        0.00000000        0.00000000        0.00000000
      72         -1.769216        1.000000        0.00000000        0.00000000        0.00000000
      73         -1.769129        1.000000        0.00000000        0.00000000        0.00000000
      74         -1.769070        1.000000        0.00000000        0.00000000        0.00000000
      75         -1.768941        1.000000        0.00000000        0.00000000        0.00000000
      76         -1.768822        1.000000        0.00000000        0.00000000        0.00000000
      77         -1.768707        1.000000        0.00000000        0.00000000        0.00000000
      78         -1.768585        1.000000        0.00000000        0.00000000        0.00000000
      79         -1.768439        1.000000        0.00000000        0.00000000        0.00000000
      80         -1.768329        1.000000        0.00000000        0.00000000        0.00000000
      81         -1.768089        1.000000        0.00000000        0.00000000        0.00000000
      82         -1.767883        1.000000        0.00000000        0.00000000        0.00000000
      83         -1.767662        1.000000        0.00000000        0.00000000        0.00000000
      84         -1.767495        1.000000        0.00000000        0.00000000        0.00000000
      85         -1.767311        1.000000        0.00000000        0.00000000        0.00000000
      86         -1.767266        1.000000        0.00000000        0.00000000        0.00000000
      87         -1.767060        1.000000        0.00000000        0.00000000        0.00000000
      88         -1.767025        1.000000        0.00000000        0.00000000        0.00000000
      89         -1.766872        1.000000        0.00000000        0.00000000        0.00000000
      90         -1.766524        1.000000        0.00000000        0.00000000        0.00000000
      91         -1.766405        1.000000        0.00000000        0.00000000        0.00000000
      92         -1.766254        1.000000        0.00000000        0.00000000        0.00000000
      93         -1.766123        1.000000        0.00000000        0.00000000        0.00000000
      94         -1.765857        1.000000        0.00000000        0.00000000        0.00000000
      95         -1.765515        1.000000        0.00000000        0.00000000        0.00000000
      96         -1.765181        1.000000        0.00000000        0.00000000        0.00000000
      97         -1.765105        1.000000        0.00000000        0.00000000        0.00000000
      98         -1.764967        1.000000        0.00000000        0.00000000        0.00000000
      99         -1.764710        1.000000        0.00000000        0.00000000        0.00000000
     100         -1.764440        1.000000        0.00000000        0.00000000        0.00000000
     101         -1.764248        1.000000        0.00000000        0.00000000        0.00000000
     102         -1.763945        1.000000        0.00000000        0.00000000        0.00000000
     103         -1.763804        1.000000        0.00000000        0.00000000        0.00000000
     104         -1.763351        1.000000        0.00000000        0.00000000        0.00000000
     105         -1.763205        1.000000        0.00000000        0.00000000        0.00000000
     106         -1.763107        1.000000        0.00000000        0.00000000        0.00000000
     107         -1.762531        1.000000        0.00000000        0.00000000        0.00000000
     108         -1.762343        1.000000        0.00000000        0.00000000        0.00000000
     109         -1.761453        1.000000        0.00000000        0.00000000        0.00000000
     110         -1.760969        1.000000        0.00000000        0.00000000        0.00000000
     111         -1.760481        1.000000        0.00000000        0.00000000        0.00000000
     112         -1.760009        1.000000        0.00000000        0.00000000        0.00000000
     113         -1.759531        1.000000        0.00000000        0.00000000        0.00000000
     114         -1.759105        1.000000        0.00000000        0.00000000        0.00000000
     115         -1.758777        1.000000        0.00000000        0.00000000        0.00000000
     116         -1.757462        1.000000        0.00000000        0.00000000        0.00000000
     117         -1.756221        1.000000        0.00000000        0.00000000        0.00000000
     118         -1.755333        1.000000        0.00000000        0.00000000        0.00000000
     119         -1.754385        1.000000        0.00000000        0.00000000        0.00000000
     120         -1.752742        1.000000        0.00000000        0.00000000        0.00000000
     121         -1.131181        1.000000        0.00010535        0.00000941        0.00000559
     122         -1.128658        1.000000        0.00020165        0.00002682        0.00001140
     123         -1.128000        1.000000        0.00019066        0.00002692        0.00001117
     124         -1.126427        1.000000        0.00001745        0.00000226        0.00000082
     125         -1.120469        1.000000        0.00013441        0.00002372        0.00000430
     126         -1.119202        1.000000        0.00003506        0.00000444        0.00000246
     127         -1.117081        1.000000        0.00000395        0.00011505        0.00000710
     128         -1.116156        1.000000        0.00004437        0.00022519        0.00000509
     129         -1.115054        1.000000        0.00025253        0.00003770        0.00001500
     130         -1.111818        1.000000        0.00005123        0.00055191        0.00003298
     131         -1.111610        1.000000        0.00016027        0.00001657        0.00001706
     132         -1.110976        1.000000        0.00008325        0.00002582        0.00000991
     133         -1.109888        1.000000        0.00056860        0.00007132        0.00003411
     134         -1.108601        1.000000        0.00050736        0.00013813        0.00001869
     135         -1.108036        1.000000        0.00162168        0.00019103        0.00005711
     136         -1.107349        1.000000        0.00472128        0.00040563        0.00013584
     137         -1.106797        1.000000        0.00008523        0.00003857        0.00000162
     138         -1.106077        1.000000        0.00046522        0.00003335        0.00002392
     139         -1.104162        1.000000        0.00046614        0.00059108        0.00002830
     140         -1.102892        1.000000        0.00377969        0.00034624        0.00010457
     141         -1.102196        1.000000        0.00019961        0.00001268        0.00001404
     142         -1.101581        1.000000        0.00113348        0.00012860        0.00002963
     143         -1.101215        1.000000        0.00014521        0.00019207        0.00002061
     144         -1.099602        1.000000        0.00007625        0.00036153        0.00002239
     145         -1.098107        1.000000        0.00127691        0.00027895        0.00005041
     146         -1.097450        1.000000        0.00002939        0.00102487        0.00004079
     147         -1.097046        1.000000        0.00026821        0.00013893        0.00000507
     148         -1.095795        1.000000        0.00060320        0.00008552        0.00001918
     149         -1.095192        1.000000        0.00029447        0.00004174        0.00000955
     150         -1.093515        1.000000        0.00151893        0.00006744        0.00005283
     151         -1.093123        1.000000        0.00266348        0.00094099        0.00013088
     152         -1.092614        1.000000        0.00085209        0.00007218        0.00002453
     153         -1.091821        1.000000        0.01441788        0.00078121        0.00030543
     154         -1.090761        1.000000        0.00287094        0.00020939        0.00005841
     155         -1.090597        1.000000        0.00008698        0.00019872        0.00001853
     156         -1.089544        1.000000        0.00245185        0.00080251        0.00010219
     157         -1.088154        1.000000        0.00238822        0.00009824        0.00007249
     158         -1.086960        1.000000        0.00001242        0.00017469        0.00001357
     159         -1.086718        1.000000        0.00047198        0.00003379        0.00002279
     160         -1.085525        1.000000        0.00003388        0.00059597        0.00005712
     161         -1.084219        1.000000        0.00053469        0.00011495        0.00002721
     162         -1.082734        1.000000        0.00017519        0.00118087        0.00009967
     163         -1.082381        1.000000        0.00719925        0.00092696        0.00016152
     164         -1.080807        1.000000        0.00020485        0.00029413        0.00003027
     165         -1.080293        1.000000        0.00102936        0.00007815        0.00002380
     166         -1.079453        1.000000        0.00048162        0.00010026        0.00001524
     167         -1.078246        1.000000        0.00007966        0.00093616        0.00005628
     168         -1.077774        1.000000        0.00087518        0.00010640        0.00005270
     169         -1.077143        1.000000        0.00002054        0.00000642        0.00000057
     170         -1.076426        1.000000        0.00000298        0.00000279        0.00000744
     171         -1.076145        1.000000        0.00029308        0.00001797        0.00001349
     172         -1.074526        1.000000        0.00025658        0.00002215        0.00001676
     173         -1.074368        1.000000        0.00038995        0.00008908        0.00002914
     174         -1.073652        1.000000        0.00129689        0.00009438        0.00003590
     175         -1.072808        1.000000        0.00086816        0.00020587        0.00000905
     176         -1.072152        1.000000        0.00008309        0.00018659        0.00000899
     177         -1.071192        1.000000        0.00137303        0.00020436        0.00004340
     178         -1.070444        1.000000        0.00005999        0.00003405        0.00000517
     179         -1.070141        1.000000        0.00117115        0.00018261        0.00001652
     180         -1.069416        1.000000        0.00066457        0.00012350        0.00003335
     181         -1.069179        1.000000        0.00336844        0.00074985        0.00006265
     182         -1.067610        1.000000        0.00391277        0.00059931        0.00006523
     183         -1.066240        1.000000        0.00096846        0.00019810        0.00004202
     184         -1.065124        1.000000        0.00033522        0.00022238        0.00002464
     185         -1.064565        1.000000        0.00154525        0.00007439        0.00002591
     186         -1.063575        1.000000        0.00372798        0.00017861        0.00006020
     187         -1.062901        1.000000        0.00156122        0.00004995        0.00002119
     188         -1.062274        1.000000        0.00072833        0.00006340        0.00001704
     189         -1.061481        1.000000        0.00218806        0.00008878        0.00002321
     190         -1.061312        1.000000        0.00000323        0.00048567        0.00003114
     191         -1.060592        1.000000        0.00182203        0.00010292        0.00002124
     192         -1.059297        1.000000        0.00068265        0.00074549        0.00004494
     193         -1.058643        1.000000        0.00009268        0.00032867        0.00003014
     194         -1.058262        1.000000        0.00098369        0.00003723        0.00000663
     195         -1.057127        1.000000        0.00442672        0.00015647        0.00004639
     196         -1.056224        1.000000        0.00006576        0.00003525        0.00000680
     197         -1.056050        1.000000        0.00099633        0.00020836        0.00002485
     198         -1.054881        1.000000        0.00007686        0.00000815        0.00000904
     199         -1.054669        1.000000        0.00034252        0.00010738        0.00001322
     200         -1.053605        1.000000        0.00031047        0.00024435        0.00004622
     201         -1.053457        1.000000        0.00001942        0.00005889        0.00001181
     202         -1.052589        1.000000        0.00531118        0.00109468        0.00013722
     203         -1.052089        1.000000        0.00017101        0.00008928        0.00000668
     204         -1.051299        1.000000        0.00000100        0.00000470        0.00001676
     205         -1.050676        1.000000        0.00276478        0.00007309        0.00004852
     206         -1.050307        1.000000        0.00016678        0.00007197        0.00000698
     207         -1.049921        1.000000        0.00005902        0.00020987        0.00002236
     208         -1.049485        1.000000        0.00057997        0.00009954        0.00000376
     209         -1.049126        1.000000        0.00020776        0.00008558        0.00001047
     210         -1.048445        1.000000        0.00087478        0.00021630        0.00003679
     211         -1.048201        1.000000        0.00233204        0.00008727        0.00004458
     212         -1.047911        1.000000        0.00002000        0.00005918        0.00001310
     213         -1.047620        1.000000        0.00006968        0.00004545        0.00000935
     214         -1.046931        1.000000        0.00004692        0.00011658        0.00002029
     215         -1.046733        1.000000        0.00022111        0.00000912        0.00000770
     216         -1.046634        1.000000        0.00001145        0.00009343        0.00002485
     217         -1.045930        1.000000        0.00000955        0.00000519        0.00000191
     218         -1.045069        1.000000        0.00000008        0.00002351        0.00001004
     219         -1.044350        1.000000        0.00007256        0.00000729        0.00000743
     220         -1.043623        1.000000        0.00039066        0.00003027        0.00002328
     221         -1.043421        1.000000        0.00000145        0.00002313        0.00002408
     222         -1.042778        1.000000        0.00007668        0.00000169        0.00000130
     223         -1.042701        1.000000        0.00016370        0.00001088        0.00002063
     224         -1.042424        1.000000        0.00114961        0.00004154        0.00006203
     225         -1.041682        1.000000        0.00001658        0.00001640        0.00000626
     226         -1.041498        1.000000        0.00475418        0.00039371        0.00019744
     227         -1.040837        1.000000        0.00001723        0.00000777        0.00000870
     228         -1.040496        1.000000        0.00055666        0.00006233        0.00004704
     229         -1.040151        1.000000        0.00079216        0.00005935        0.00003256
     230         -1.039686        1.000000        0.00000309        0.00001005        0.00000575
     231         -1.038961        1.000000        0.00009179        0.00000202        0.00001511
     232         -1.038553        1.000000        0.00165874        0.00009490        0.00008921
     233         -1.038476        1.000000        0.00017861        0.00000386        0.00002198
     234         -1.038152        1.000000        0.00001906        0.00001490        0.00000869
     235         -1.038041        1.000000        0.00040919        0.00001977        0.00002342
     236         -1.036855        1.000000        0.00003765        0.00004437        0.00000633
     237         -1.036488        1.000000        0.00000478        0.00005532        0.00002474
     238         -1.036186        1.000000        0.00000546        0.00000612        0.00000458
     239         -1.036068        1.000000        0.00072913        0.00000813        0.00005747
     240         -1.035757        1.000000        0.00000059        0.00001358        0.00000863
     241         -1.035291        1.000000        0.00038898        0.00001079        0.00003628
     242         -1.035048        1.000000        0.00074889        0.00002496        0.00007988
     243         -1.035000        1.000000        0.00049351        0.00010175        0.00002243
     244         -1.034454        1.000000        0.00003433        0.00001127        0.00000848
     245         -1.034219        1.000000        0.00003019        0.00013095        0.00003989
     246         -1.033874        1.000000        0.00010983        0.00002996        0.00001447
     247         -1.033507        1.000000        0.00002019        0.00000666        0.00000782
     248         -1.033219        1.000000        0.00008675        0.00001530        0.00006141
     249         -1.033056        1.000000        0.00000973        0.00000251        0.00002480
     250         -1.032307        1.000000        0.00058276        0.00005753        0.00001479
     251         -1.031324        1.000000        0.00000778        0.00005994        0.00002196
     252         -1.031144        1.000000        0.00030988        0.00015527        0.00014268
     253         -1.030643        1.000000        0.00200859        0.00013411        0.00008749
     254         -1.030284        1.000000        0.00002492        0.00002672        0.00000802
     255         -1.030062        1.000000        0.00046617        0.00005993        0.00000947
     256         -1.029818        1.000000        0.00140572        0.00003801        0.00012142
     257         -1.028552        1.000000        0.00119390        0.00006676        0.00000917
     258         -1.027578        1.000000        0.00014847        0.00026795        0.00021777
     259         -1.027121        1.000000        0.00001439        0.00000211        0.00000306
     260         -1.026880        1.000000        0.00334591        0.00013699        0.00007834
     261         -1.026226        1.000000        0.00021052        0.00010971        0.00002221
     262         -1.025765        1.000000        0.00001819        0.00000328        0.00000337
     263         -1.025299        1.000000        0.00005913        0.00000179        0.00000644
     264         -1.025158        1.000000        0.00000522        0.00000983        0.00001433
     265         -1.025007        1.000000        0.00108813        0.00003663        0.00004367
     266         -1.024422        1.000000        0.00170034        0.00006887        0.00001222
     267         -1.023793        1.000000        0.00005644        0.00000682        0.00000096
     268         -1.023594        1.000000        0.00006326        0.00000260        0.00000051
     269         -1.023069        1.000000        0.00229514        0.00004822        0.00002336
     270         -1.022603        1.000000        0.00031055        0.00000753        0.00000436
     271         -1.022074        1.000000        0.00008844        0.00000521        0.00000324
     272         -1.021695        1.000000        0.00008260        0.00000589        0.00000050
     273         -1.021372        1.000000        0.00000067        0.00000039        0.00000029
     274         -1.021076        1.000000        0.00093793        0.00002081        0.00000741
     275         -1.019492        1.000000        0.06898920        0.00140660        0.00060649
     276         -1.018003        1.000000        0.00022441        0.00001695        0.00000670
     277         -1.016408        1.000000        0.00002898        0.00000370        0.00000264
     278         -1.016278        1.000000        0.00121481        0.00001566        0.00000928
     279         -1.015338        1.000000        0.00224316        0.00002518        0.00000572
     280         -1.013851        1.000000        0.00025495        0.00000327        0.00000041
     281         -1.010223        1.000000        0.33065371        0.00339147        0.00015387
     282         -1.009666        1.000000        0.00012221        0.00000125        0.00000004
     283         -1.007726        1.000000        0.02206426        0.00018364        0.00004098
     284         -1.007300        1.000000        0.00785504        0.00008443        0.00001281
     285         -1.006916        1.000000        0.00007898        0.00000080        0.00000007
     286         -0.889442        1.000000        0.00000013        0.00000005        0.00000000
     287         -0.869424        1.000000        0.00000000        0.00000001        0.00000000
     288         -0.867225        1.000000        0.00000011        0.00000007        0.00000000
     289         -0.864755        1.000000        0.00000000        0.00000008        0.00000001
     290         -0.860947        1.000000        0.00000002        0.00000002        0.00000000
     291         -0.846899        1.000000        0.00000000        0.00000004        0.00000000
     292         -0.844423        1.000000        0.00000002        0.00000006        0.00000000
     293         -0.843782        1.000000        0.00000000        0.00000001        0.00000000
     294         -0.840445        1.000000        0.00000002        0.00000001        0.00000000
     295         -0.821748        1.000000        0.00000001        0.00000005        0.00000000
     296         -0.818927        1.000000        0.00000001        0.00000002        0.00000000
     297         -0.814033        1.000000        0.00000017        0.00000009        0.00000000
     298         -0.808071        1.000000        0.00000002        0.00000001        0.00000000
     299         -0.807076        1.000000        0.00000002        0.00000003        0.00000000
     300         -0.806003        1.000000        0.00000004        0.00000003        0.00000000
     301         -0.805433        1.000000        0.00000005        0.00000005        0.00000000
     302         -0.803208        1.000000        0.00000003        0.00000004        0.00000000
     303         -0.802271        1.000000        0.00000000        0.00000004        0.00000000
     304         -0.801014        1.000000        0.00000001        0.00000001        0.00000000
     305         -0.800419        1.000000        0.00000001        0.00000001        0.00000000
     306         -0.800163        1.000000        0.00000000        0.00000001        0.00000000
     307         -0.798966        1.000000        0.00000000        0.00000001        0.00000000