# Projected DOS for list 59 of 1 atoms, at iteration step i = 0, E(Fermi) =    -0.245567 a.u.
#     MO Eigenvalue [a.u.]      Occupation                 s                 p                 d
       1         -3.122063        1.000000        0.00000000        0.00000000        0.00000000
       2         -3.121278        1.000000        0.00000000        0.00000000        0.00000000
       3         -3.121021        1.000000        0.00000000        0.00000000        0.00000000
       4         -3.120578        1.000000        0.00000000        0.00000000        0.00000000
       5         -3.120271        1.000000        0.00000000        0.00000000        0.00000000
       6         -3.119857        1.000000        0.00000000        0.00000000        0.00000000
       7         -3.119652        1.000000        0.00000000        0.00000000        0.00000000
       8         -3.119624        1.000000        0.00000000        0.00000000        0.00000000
       9         -3.119219        1.000000        0.00000000        0.00000000        0.00000000
      10         -3.119023        1.000000        0.00000000        0.00000000        0.00000000
      11         -3.118913        1.000000        0.00000000        0.00000000        0.00000000
      12         -3.118874        1.000000        0.00000000        0.00000000        0.00000000
      13         -3.118317        1.000000        0.00000000        0.00000000        0.00000000
      14         -3.118249        1.000000        0.00000000        0.00000000        0.00000000
      15         -3.117895        1.000000        0.00000000        0.00000000        0.00000000
      16         -3.117383        1.000000        0.00000000        0.00000000        0.00000000
      17         -3.117165        1.000000        0.00000000        0.00000000        0.00000000
      18         -3.116815        1.000000        0.00000000        0.00000000        0.00000000
      19         -3.116436        1.000000        0.00000000        0.00000000        0.00000000
      20         -3.116021        1.000000        0.00000000        0.00000000        0.00000000
      21         -3.115852        1.000000        0.00000000        0.00000000        0.00000000
      22         -3.115668        1.000000        0.00000000        0.00000000        0.00000000
      23         -3.115368        1.000000        0.00000000        0.00000000        0.00000000
      24         -3.115339        1.000000        0.00000000        0.00000000        0.00000000
      25         -3.115041        1.000000        0.00000000        0.00000000        0.00000000
      26         -3.114366        1.000000        0.00000000        0.00000000        0.00000000
      27         -3.113951        1.000000        0.00000000        0.00000000        0.00000000
      28         -3.113764        1.000000        0.00000000        0.00000000        0.00000000
      29         -3.112534        1.000000        0.00000000        0.00000000        0.00000000
      30         -3.111679        1.000000        0.00000000        0.00000000        0.00000000
      31         -1.784233        1.000000        0.00000000        0.00000000        0.00000000
      32         -1.782870        1.000000        0.00000000        0.00000000        0.00000000
      33         -1.782324        1.000000        0.00000000        0.00000000        0.00000000
      34         -1.782130        1.000000        0.00000000        0.00000000        0.00000000
      35         -1.781736        1.000000        0.00000000        0.00000000        0.00000000
      36         -1.781230        1.000000        0.00000000        0.00000000        0.00000000
      37         -1.780847        1.000000        0.00000000        0.00000000        0.00000000
      38         -1.780487        1.000000        0.00000000        0.00000000        0.00000000
      39         -1.780184        1.000000        0.00000000        0.00000000        0.00000000
      40         -1.779550        1.000000        0.00000000        0.00000000        0.00000000
      41         -1.779259        1.000000        0.00000000        0.00000000        0.00000000
      42         -1.778921        1.000000        0.00000000        0.00000000        0.00000000
      43         -1.778390        1.000000        0.00000000        0.00000000        0.00000000
      44         -1.778140        1.000000        0.00000000        0.00000000        0.00000000
      45         -1.777912        1.000000        0.00000000        0.00000000        0.00000000
      46         -1.777514        1.000000        0.00000000        0.00000000        0.00000000
      47         -1.777362        1.000000        0.00000000        0.00000000        0.00000000
      48         -1.776787        1.000000        0.00000000        0.00000000        0.00000000
      49         -1.776537        1.000000        0.00000000        0.00000000        0.00000000
      50         -1.776457        1.000000        0.00000000        0.00000000        0.00000000
      51         -1.776029        1.000000        0.00000000        0.00000000        0.00000000
      52         -1.774038        1.000000        0.00000000        0.00000000        0.00000000
      53         -1.773797        1.000000        0.00000000        0.00000000        0.00000000
      54         -1.773665        1.000000        0.00000000        0.00000000        0.00000000
      55         -1.772725        1.000000        0.00000000        0.00000000        0.00000000
      56         -1.772546        1.000000        0.00000000        0.00000000        0.00000000
      57         -1.772041        1.000000        0.00000000        0.00000000        0.00000000
      58         -1.771662        1.000000        0.00000000        0.00000000        0.00000000
      59         -1.771364        1.000000        0.00000000        0.00000000        0.00000000
      60         -1.770813        1.000000        0.00000000        0.00000000        0.00000000
      61         -1.770640        1.000000        0.00000000        0.00000000        0.00000000
      62         -1.770449        1.000000        0.00000000        0.00000000        0.00000000
      63         -1.770188        1.000000        0.00000000        0.00000000        0.00000000
      64         -1.770126        1.000000        0.00000000        0.00000000        0.00000000
      65         -1.769991        1.000000        0.00000000        0.00000000        0.00000000
      66         -1.769845        1.000000        0.00000000        0.00000000        0.00000000
      67         -1.769763        1.000000        0.00000000        0.00000000        0.00000000
      68         -1.769661        1.000000        0.00000000        0.00000000        0.00000000
      69         -1.769465        1.000000        0.00000000        0.00000000        0.00000000
      70         -1.769351        1.000000        0.00000000        0.00000000        0.00000000
      71         -1.769328        1.000000        0.00000000        0.00000000        0.00000000
      72         -1.769216        1.000000        0.00000000        0.00000000        0.00000000
      73         -1.769129        1.000000        0.00000000        0.00000000        0.00000000
      74         -1.769070        1.000000        0.00000000        0.00000000        0.00000000
      75         -1.768941        1.000000        0.00000000        0.00000000        0.00000000
      76         -1.768822        1.000000        0.00000000        0.00000000        0.00000000
      77         -1.768707        1.000000        0.00000000        0.00000000        0.00000000
      78         -1.768585        1.000000        0.00000000        0.00000000        0.00000000
      79         -1.768439        1.000000        0.00000000        0.00000000        0.00000000
      80         -1.768329        1.000000        0.00000000        0.00000000        0.00000000
      81         -1.768089        1.000000        0.00000000        0.00000000        0.00000000
      82         -1.767883        1.000000        0.00000000        0.00000000        0.00000000
      83         -1.767662        1.000000        0.00000000        0.00000000        0.00000000
      84         -1.767495        1.000000        0.00000000        0.00000000        0.00000000
      85         -1.767311        1.000000        0.00000000        0.00000000        0.00000000
      86         -1.767266        1.000000        0.00000000        0.00000000        0.00000000
      87         -1.767060        1.000000        0.00000000        0.00000000        0.00000000
      88         -1.767025        1.000000        0.00000000        0.00000000        0.00000000
      89         -1.766872        1.000000        0.00000000        0.00000000        0.00000000
      90         -1.766524        1.000000        0.00000000        0.00000000        0.00000000
      91         -1.766405        1.000000        0.00000000        0.00000000        0.00000000
      92         -1.766254        1.000000        0.00000000        0.00000000        0.00000000
      93         -1.766123        1.000000        0.00000000        0.00000000        0.00000000
      94         -1.765857        1.000000        0.00000000        0.00000000        0.00000000
      95         -1.765515        1.000000        0.00000000        0.00000000        0.00000000
      96         -1.765181        1.000000        0.00000000        0.00000000        0.00000000
      97         -1.765105        1.000000        0.00000000        0.00000000        0.00000000
      98         -1.764967        1.000000        0.00000000        0.00000000        0.00000000
      99         -1.764710        1.000000        0.00000000        0.00000000        0.00000000
     100         -1.764440        1.000000        0.00000000        0.00000000        0.00000000
     101         -1.764248        1.000000        0.00000000        0.00000000        0.00000000
     102         -1.763945        1.000000        0.00000000        0.00000000        0.00000000
     103         -1.763804        1.000000        0.00000000        0.00000000        0.00000000
     104         -1.763351        1.000000        0.00000000        0.00000000        0.00000000
     105         -1.763205        1.000000        0.00000000        0.00000000        0.00000000
     106         -1.763107        1.000000        0.00000000        0.00000000        0.00000000
     107         -1.762531        1.000000        0.00000000        0.00000000        0.00000000
     108         -1.762343        1.000000        0.00000000        0.00000000        0.00000000
     109         -1.761453        1.000000        0.00000000        0.00000000        0.00000000
     110         -1.760969        1.000000        0.00000000        0.00000000        0.00000000
     111         -1.760481        1.000000        0.00000000        0.00000000        0.00000000
     112         -1.760009        1.000000        0.00000000        0.00000000        0.00000000
     113         -1.759531        1.000000        0.00000000        0.00000000        0.00000000
     114         -1.759105        1.000000        0.00000000        0.00000000        0.00000000
     115         -1.758777        1.000000        0.00000000        0.00000000        0.00000000
     116         -1.757462        1.000000        0.00000000        0.00000000        0.00000000
     117         -1.756221        1.000000        0.00000000        0.00000000        0.00000000
     118         -1.755333        1.000000        0.00000000        0.00000000        0.00000000
     119         -1.754385        1.000000        0.00000000        0.00000000        0.00000000
     120         -1.752742        1.000000        0.00000000        0.00000000        0.00000000
     121         -1.131181        1.000000        0.00042764        0.00016791        0.00001361
     122         -1.128658        1.000000        0.00012085        0.00009095        0.00000471
     123         -1.128000        1.000000        0.00021446        0.00007546        0.00002229
     124         -1.126427        1.000000        0.00090842        0.00071945        0.00022174
     125         -1.120469        1.000000        0.00045355        0.00097241        0.00021068
     126         -1.119202        1.000000        0.00001322        0.00030494        0.00005244
     127         -1.117081        1.000000        0.00000641        0.00000894        0.00000263
     128         -1.116156        1.000000        0.00040018        0.00005982        0.00003082
     129         -1.115054        1.000000        0.00019934        0.00039561        0.00010024
     130         -1.111818        1.000000        0.00125812        0.00028502        0.00012637
     131         -1.111610        1.000000        0.00314075        0.00145646        0.00060043
     132         -1.110976        1.000000        0.00137464        0.00027185        0.00015557
     133         -1.109888        1.000000        0.00001897        0.00069388        0.00015054
     134         -1.108601        1.000000        0.00014061        0.00041425        0.00006201
     135         -1.108036        1.000000        0.00337131        0.00222260        0.00087994
     136         -1.107349        1.000000        0.00110430        0.00046527        0.00020261
     137         -1.106797        1.000000        0.00366794        0.00508276        0.00150493
     138         -1.106077        1.000000        0.01486891        0.00613360        0.00266098
     139         -1.104162        1.000000        0.00666073        0.00456629        0.00168574
     140         -1.102892        1.000000        0.00366768        0.00186934        0.00086410
     141         -1.102196        1.000000        0.00003456        0.00433216        0.00094854
     142         -1.101581        1.000000        0.00295889        0.00311274        0.00071811
     143         -1.101215        1.000000        0.01537146        0.00278926        0.00165130
     144         -1.099602        1.000000        0.00006733        0.00027511        0.00009073
     145         -1.098107        1.000000        0.00005021        0.00210256        0.00055735
     146         -1.097450        1.000000        0.00010116        0.00031658        0.00008008
     147         -1.097046        1.000000        0.00057931        0.00050283        0.00009464
     148         -1.095795        1.000000        0.00125581        0.00014533        0.00004213
     149         -1.095192        1.000000        0.00011132        0.00045006        0.00015908
     150         -1.093515        1.000000        0.00283988        0.00136206        0.00053353
     151         -1.093123        1.000000        0.00000262        0.00014267        0.00004147
     152         -1.092614        1.000000        0.00014818        0.00100486        0.00031436
     153         -1.091821        1.000000        0.00186588        0.00069290        0.00009679
     154         -1.090761        1.000000        0.00309654        0.00141347        0.00019648
     155         -1.090597        1.000000        0.00001839        0.00085194        0.00021098
     156         -1.089544        1.000000        0.00003916        0.00008579        0.00002440
     157         -1.088154        1.000000        0.00169140        0.00136724        0.00045783
     158         -1.086960        1.000000        0.00038192        0.00325582        0.00103939
     159         -1.086718        1.000000        0.01484635        0.00136873        0.00047306
     160         -1.085525        1.000000        0.00007459        0.00027453        0.00012222
     161         -1.084219        1.000000        0.00002171        0.00360656        0.00098706
     162         -1.082734        1.000000        0.00269143        0.00146747        0.00041462
     163         -1.082381        1.000000        0.00000670        0.00103547        0.00038194
     164         -1.080807        1.000000        0.00015692        0.00620069        0.00202291
     165         -1.080293        1.000000        0.00019468        0.00320727        0.00106821
     166         -1.079453        1.000000        0.00013072        0.00093324        0.00030379
     167         -1.078246        1.000000        0.00136409        0.00006224        0.00000856
     168         -1.077774        1.000000        0.00046301        0.00649647        0.00187466
     169         -1.077143        1.000000        0.00025255        0.00021887        0.00006339
     170         -1.076426        1.000000        0.00095938        0.00036945        0.00021901
     171         -1.076145        1.000000        0.00004704        0.00644553        0.00204198
     172         -1.074526        1.000000        0.00000618        0.00014146        0.00004049
     173         -1.074368        1.000000        0.00033391        0.00296831        0.00088675
     174         -1.073652        1.000000        0.00003862        0.00129141        0.00053186
     175         -1.072808        1.000000        0.00096495        0.00150333        0.00042487
     176         -1.072152        1.000000        0.00009825        0.00408370        0.00160264
     177         -1.071192        1.000000        0.00072391        0.00068369        0.00019034
     178         -1.070444        1.000000        0.00041352        0.00213980        0.00060263
     179         -1.070141        1.000000        0.00011881        0.00109919        0.00040228
     180         -1.069416        1.000000        0.00097737        0.00432039        0.00129583
     181         -1.069179        1.000000        0.00063465        0.00058271        0.00017043
     182         -1.067610        1.000000        0.00158951        0.00441781        0.00139569
     183         -1.066240        1.000000        0.00003262        0.00005545        0.00002224
     184         -1.065124        1.000000        0.00150574        0.00182858        0.00062248
     185         -1.064565        1.000000        0.00002312        0.00168527        0.00075584
     186         -1.063575        1.000000        0.00040094        0.00040032        0.00014091
     187         -1.062901        1.000000        0.00284019        0.00133137        0.00039822
     188         -1.062274        1.000000        0.00687868        0.00443332        0.00128658
     189         -1.061481        1.000000        0.00001738        0.00022785        0.00007312
     190         -1.061312        1.000000        0.00001141        0.00041569        0.00012938
     191         -1.060592        1.000000        0.00087378        0.00125359        0.00042035
     192         -1.059297        1.000000        0.00050851        0.00059729        0.00026991
     193         -1.058643        1.000000        0.00287591        0.00205983        0.00069098
     194         -1.058262        1.000000        0.00019867        0.00063172        0.00027521
     195         -1.057127        1.000000        0.00212344        0.00219188        0.00086149
     196         -1.056224        1.000000        0.00053085        0.00091303        0.00042661
     197         -1.056050        1.000000        0.00144453        0.00198579        0.00080435
     198         -1.054881        1.000000        0.00006091        0.00077146        0.00027572
     199         -1.054669        1.000000        0.00081725        0.00302750        0.00135520
     200         -1.053605        1.000000        0.00004144        0.00041035        0.00019204
     201         -1.053457        1.000000        0.00052791        0.00309615        0.00114922
     202         -1.052589        1.000000        0.00009779        0.00021194        0.00007083
     203         -1.052089        1.000000        0.00070694        0.00055883        0.00024145
     204         -1.051299        1.000000        0.00000470        0.00156822        0.00074580
     205         -1.050676        1.000000        0.00022157        0.00062310        0.00027144
     206         -1.050307        1.000000        0.00025912        0.00183264        0.00063161
     207         -1.049921        1.000000        0.00008842        0.00090211        0.00040908
     208         -1.049485        1.000000        0.00007052        0.00124541        0.00045768
     209         -1.049126        1.000000        0.00045271        0.00476802        0.00168458
     210         -1.048445        1.000000        0.00067313        0.00417983        0.00189002
     211         -1.048201        1.000000        0.00026270        0.00139580        0.00057341
     212         -1.047911        1.000000        0.00014840        0.00073539        0.00034575
     213         -1.047620        1.000000        0.00082771        0.00310629        0.00114251
     214         -1.046931        1.000000        0.00010195        0.00023973        0.00006729
     215         -1.046733        1.000000        0.00044411        0.00211803        0.00090592
     216         -1.046634        1.000000        0.00065263        0.00174279        0.00078123
     217         -1.045930        1.000000        0.00104164        0.00290458        0.00141166
     218         -1.045069        1.000000        0.00006236        0.00028896        0.00013859
     219         -1.044350        1.000000        0.00063991        0.00218430        0.00078614
     220         -1.043623        1.000000        0.00009752        0.00083218        0.00042182
     221         -1.043421        1.000000        0.00000151        0.00001969        0.00001028
     222         -1.042778        1.000000        0.00000386        0.00043974        0.00016184
     223         -1.042701        1.000000        0.00047362        0.00367725        0.00157236
     224         -1.042424        1.000000        0.00000072        0.00007243        0.00004029
     225         -1.041682        1.000000        0.00022419        0.00230364        0.00102062
     226         -1.041498        1.000000        0.00004871        0.00036497        0.00017524
     227         -1.040837        1.000000        0.00042462        0.00574378        0.00240687
     228         -1.040496        1.000000        0.00046141        0.00562738        0.00216749
     229         -1.040151        1.000000        0.00098866        0.01134496        0.00479296
     230         -1.039686        1.000000        0.00090106        0.00956025        0.00423763
     231         -1.038961        1.000000        0.00016406        0.00391183        0.00164169
     232         -1.038553        1.000000        0.00014492        0.00214590        0.00089437
     233         -1.038476        1.000000        0.00001423        0.00141662        0.00062928
     234         -1.038152        1.000000        0.00004145        0.00295004        0.00114144
     235         -1.038041        1.000000        0.00022175        0.00290720        0.00112754
     236         -1.036855        1.000000        0.00007454        0.00153558        0.00059649
     237         -1.036488        1.000000        0.00002975        0.00048237        0.00023511
     238         -1.036186        1.000000        0.00015177        0.00399006        0.00163993
     239         -1.036068        1.000000        0.00000115        0.00071313        0.00029629
     240         -1.035757        1.000000        0.00000553        0.00019440        0.00009429
     241         -1.035291        1.000000        0.00001005        0.00030370        0.00012847
     242         -1.035048        1.000000        0.00005146        0.00527089        0.00201232
     243         -1.035000        1.000000        0.00004636        0.00197710        0.00086883
     244         -1.034454        1.000000        0.00004952        0.00336028        0.00151869
     245         -1.034219        1.000000        0.00000469        0.00076992        0.00038142
     246         -1.033874        1.000000        0.00000249        0.00215219        0.00083024
     247         -1.033507        1.000000        0.00001845        0.00096864        0.00047435
     248         -1.033219        1.000000        0.00001280        0.00139756        0.00060219
     249         -1.033056        1.000000        0.00002660        0.00167068        0.00076091
     250         -1.032307        1.000000        0.00000425        0.00074130        0.00032564
     251         -1.031324        1.000000        0.00000102        0.00013558        0.00004406
     252         -1.031144        1.000000        0.00000191        0.00042692        0.00012768
     253         -1.030643        1.000000        0.00001637        0.00427023        0.00157602
     254         -1.030284        1.000000        0.00001580        0.01077992        0.00417466
     255         -1.030062        1.000000        0.00002790        0.02517462        0.01001652
     256         -1.029818        1.000000        0.00000363        0.00216323        0.00087704
     257         -1.028552        1.000000        0.00000421        0.00004685        0.00002831
     258         -1.027578        1.000000        0.00000058        0.00054217        0.00023930
     259         -1.027121        1.000000        0.00000475        0.00106592        0.00042919
     260         -1.026880        1.000000        0.00001087        0.00617689        0.00307321
     261         -1.026226        1.000000        0.00000489        0.00070152        0.00026279
     262         -1.025765        1.000000        0.00001597        0.00656221        0.00337026
     263         -1.025299        1.000000        0.00061441        0.06238489        0.02620314
     264         -1.025158        1.000000        0.00001095        0.00138354        0.00057081
     265         -1.025007        1.000000        0.00000920        0.00131197        0.00053933
     266         -1.024422        1.000000        0.00000056        0.00002219        0.00001386
     267         -1.023793        1.000000        0.00001949        0.00923996        0.00457708
     268         -1.023594        1.000000        0.00000231        0.00024812        0.00012501
     269         -1.023069        1.000000        0.00000101        0.00042661        0.00021715
     270         -1.022603        1.000000        0.00000506        0.00077080        0.00039749
     271         -1.022074        1.000000        0.00000252        0.00021310        0.00010344
     272         -1.021695        1.000000        0.00001041        0.00180050        0.00087154
     273         -1.021372        1.000000        0.00024068        0.06897619        0.03341848
     274         -1.021076        1.000000        0.00000122        0.00023508        0.00011684
     275         -1.019492        1.000000        0.00000027        0.00001557        0.00000823
     276         -1.018003        1.000000        0.00000244        0.00036468        0.00017857
     277         -1.016408        1.000000        0.00000001        0.00000275        0.00000138
     278         -1.016278        1.000000        0.00000082        0.00003769        0.00002030
     279         -1.015338        1.000000        0.00000840        0.00031649        0.00017281
     280         -1.013851        1.000000        0.00000195        0.00001461        0.00001242
     281         -1.010223        1.000000        0.00000001        0.00000153        0.00000079
     282         -1.009666        1.000000        0.00001984        0.00152078        0.00078177
     283         -1.007726        1.000000        0.00000000        0.00000011        0.00000004
     284         -1.007300        1.000000        0.00000012        0.00000280        0.00000122
     285         -1.006916        1.000000        0.00000220        0.00006288        0.00002679
     286         -0.889442        1.000000        0.00000000        0.00000000        0.00000000
     287         -0.869424        1.000000        0.00000000        0.00000000        0.00000000
     288         -0.867225        1.000000        0.00000000        0.00000000        0.00000000
     289         -0.864755        1.000000        0.00000000        0.00000000        0.00000000
     290         -0.860947        1.000000        0.00000000        0.00000000        0.00000000
     291         -0.846899        1.000000        0.00000000        0.00000000        0.00000000
     292         -0.844423        1.000000        0.00000000        0.00000000        0.00000000
     293         -0.843782        1.000000        0.00000000        0.00000000        0.00000000
     294         -0.840445        1.000000        0.00000000        0.00000000        0.00000000
     295         -0.821748        1.000000        0.00000000        0.00000000        0.00000000
     296         -0.818927        1.000000        0.00000000        0.00000000        0.00000000
     297         -0.814033        1.000000        0.00000000        0.00000000        0.00000000
     298         -0.808071        1.000000        0.00000000        0.00000000        0.00000000
     299         -0.807076        1.000000        0.00000000        0.00000000        0.00000000
     300         -0.806003        1.000000        0.00000000        0.00000000        0.00000000
     301         -0.805433        1.000000        0.00000000        0.00000000        0.00000000
     302         -0.803208        1.000000        0.00000000        0.00000000        0.00000000
     303         -0.802271        1.000000        0.00000000        0.00000000        0.00000000
     304         -0.801014        1.000000        0.00000000        0.00000000        0.00000000
     305         -0.800419        1.000000        0.00000000        0.00000000        0.00000000
     306         -0.800163        1.000000        0.00000000        0.00000000        0.00000000
     307         -0.798966        1.000000        0.00000000        0.00000000        0.00000000