# Projected DOS for list 288 of 1 atoms, at iteration step i = 0, E(Fermi) =    -0.245567 a.u.
#     MO Eigenvalue [a.u.]      Occupation                 s                 p                 d
       1         -3.122063        1.000000        0.00000092        0.00000666        0.00000223
       2         -3.121278        1.000000        0.00002510        0.00005551        0.00000534
       3         -3.121021        1.000000        0.00000992        0.00002826        0.00000293
       4         -3.120578        1.000000        0.00090471        0.00155398        0.00014913
       5         -3.120271        1.000000        0.00002277        0.00010115        0.00001298
       6         -3.119857        1.000000        0.00284241        0.00502466        0.00044047
       7         -3.119652        1.000000        0.00000820        0.00019139        0.00003055
       8         -3.119624        1.000000        0.00002971        0.00007923        0.00000812
       9         -3.119219        1.000000        0.00004127        0.00013188        0.00001889
      10         -3.119023        1.000000        0.00000390        0.00002903        0.00000323
      11         -3.118913        1.000000        0.00000033        0.00000238        0.00000038
      12         -3.118874        1.000000        0.00010438        0.00057063        0.00006514
      13         -3.118317        1.000000        0.00000187        0.00000043        0.00000064
      14         -3.118249        1.000000        0.00000142        0.00000193        0.00000019
      15         -3.117895        1.000000        0.00000874        0.00000834        0.00000115
      16         -3.117383        1.000000        0.00008083        0.00042382        0.00007951
      17         -3.117165        1.000000        0.00000331        0.00000340        0.00000022
      18         -3.116815        1.000000        0.00012809        0.00044600        0.00004773
      19         -3.116436        1.000000        0.00032022        0.00082441        0.00008220
      20         -3.116021        1.000000        0.00005267        0.00011389        0.00001079
      21         -3.115852        1.000000        0.00139149        0.00339502        0.00034668
      22         -3.115668        1.000000        0.00008917        0.00014843        0.00001100
      23         -3.115368        1.000000        0.00009317        0.00017736        0.00001194
      24         -3.115339        1.000000        0.00120999        0.00269545        0.00022120
      25         -3.115041        1.000000        0.00003182        0.00114757        0.00018675
      26         -3.114366        1.000000        0.00000855        0.00002807        0.00000293
      27         -3.113951        1.000000        0.00151757        0.00616944        0.00089248
      28         -3.113764        1.000000        0.00000361        0.00002005        0.00000407
      29         -3.112534        1.000000        0.00001117        0.00011742        0.00001463
      30         -3.111679        1.000000        0.00000001        0.00000003        0.00000001
      31         -1.784233        1.000000        0.00069130        0.00182128        0.00016709
      32         -1.782870        1.000000        0.00117509        0.00287045        0.00017279
      33         -1.782324        1.000000        0.00027065        0.00085865        0.00014803
      34         -1.782130        1.000000        0.00004543        0.00015902        0.00003362
      35         -1.781736        1.000000        0.00001353        0.00006861        0.00002539
      36         -1.781230        1.000000        0.00009809        0.00036863        0.00007227
      37         -1.780847        1.000000        0.00001048        0.00012364        0.00005164
      38         -1.780487        1.000000        0.00023995        0.00070361        0.00011667
      39         -1.780184        1.000000        0.00000987        0.00005648        0.00002438
      40         -1.779550        1.000000        0.00011172        0.00030636        0.00005793
      41         -1.779259        1.000000        0.00002806        0.00005960        0.00000936
      42         -1.778921        1.000000        0.00002400        0.00018767        0.00006527
      43         -1.778390        1.000000        0.00003106        0.00009618        0.00001689
      44         -1.778140        1.000000        0.00007556        0.00019577        0.00001338
      45         -1.777912        1.000000        0.00002235        0.00020286        0.00008058
      46         -1.777514        1.000000        0.00001205        0.00005531        0.00001215
      47         -1.777362        1.000000        0.00007936        0.00025551        0.00005477
      48         -1.776787        1.000000        0.00002828        0.00016148        0.00004892
      49         -1.776537        1.000000        0.00006050        0.00015303        0.00003322
      50         -1.776457        1.000000        0.00001912        0.00021766        0.00008200
      51         -1.776029        1.000000        0.00000390        0.00004404        0.00002132
      52         -1.774038        1.000000        0.00001211        0.00010143        0.00006850
      53         -1.773797        1.000000        0.00032149        0.00078828        0.00016436
      54         -1.773665        1.000000        0.00000609        0.00006896        0.00005203
      55         -1.772725        1.000000        0.00013263        0.00042879        0.00010250
      56         -1.772546        1.000000        0.00052462        0.00107105        0.00011032
      57         -1.772041        1.000000        0.00010754        0.00033122        0.00009296
      58         -1.771662        1.000000        0.00000661        0.00007948        0.00004173
      59         -1.771364        1.000000        0.00024948        0.00044356        0.00000659
      60         -1.770813        1.000000        0.00000218        0.00016137        0.00009039
      61         -1.770640        1.000000        0.00005759        0.00009276        0.00000876
      62         -1.770449        1.000000        0.00000616        0.00022229        0.00011088
      63         -1.770188        1.000000        0.00000108        0.00014254        0.00006840
      64         -1.770126        1.000000        0.00000010        0.00020586        0.00009745
      65         -1.769991        1.000000        0.00005296        0.00041490        0.00011959
      66         -1.769845        1.000000        0.00001283        0.00027080        0.00010836
      67         -1.769763        1.000000        0.00010993        0.00022967        0.00006173
      68         -1.769661        1.000000        0.00006715        0.00028911        0.00008662
      69         -1.769465        1.000000        0.00001739        0.00016030        0.00006730
      70         -1.769351        1.000000        0.00001056        0.00005201        0.00001917
      71         -1.769328        1.000000        0.00010723        0.00023317        0.00005047
      72         -1.769216        1.000000        0.00001357        0.00011225        0.00006682
      73         -1.769129        1.000000        0.00003085        0.00010009        0.00002742
      74         -1.769070        1.000000        0.00005001        0.00031990        0.00014064
      75         -1.768941        1.000000        0.00000465        0.00025376        0.00010257
      76         -1.768822        1.000000        0.00000556        0.00065160        0.00026729
      77         -1.768707        1.000000        0.00027925        0.00042951        0.00001018
      78         -1.768585        1.000000        0.00000069        0.00001616        0.00000373
      79         -1.768439        1.000000        0.00006267        0.00008076        0.00000792
      80         -1.768329        1.000000        0.00001335        0.00012494        0.00004585
      81         -1.768089        1.000000        0.00011514        0.00083261        0.00027455
      82         -1.767883        1.000000        0.00009425        0.00043858        0.00011092
      83         -1.767662        1.000000        0.00000389        0.00007145        0.00002825
      84         -1.767495        1.000000        0.00001112        0.00002985        0.00000520
      85         -1.767311        1.000000        0.00005179        0.00026313        0.00008651
      86         -1.767266        1.000000        0.00000028        0.00000424        0.00000983
      87         -1.767060        1.000000        0.00029625        0.00123476        0.00036211
      88         -1.767025        1.000000        0.00010014        0.00048600        0.00015848
      89         -1.766872        1.000000        0.00000157        0.00006037        0.00004917
      90         -1.766524        1.000000        0.00001731        0.00011166        0.00004107
      91         -1.766405        1.000000        0.00001440        0.00231315        0.00105489
      92         -1.766254        1.000000        0.00000869        0.00005128        0.00002533
      93         -1.766123        1.000000        0.00000062        0.00065250        0.00030934
      94         -1.765857        1.000000        0.00000656        0.00004287        0.00002399
      95         -1.765515        1.000000        0.00001070        0.00015336        0.00006734
      96         -1.765181        1.000000        0.00001076        0.00014623        0.00006349
      97         -1.765105        1.000000        0.00007471        0.00030223        0.00009316
      98         -1.764967        1.000000        0.00001061        0.00034308        0.00018278
      99         -1.764710        1.000000        0.00001842        0.00013853        0.00007474
     100         -1.764440        1.000000        0.00000026        0.00059350        0.00028062
     101         -1.764248        1.000000        0.00000078        0.00001279        0.00002046
     102         -1.763945        1.000000        0.00000042        0.00003654        0.00001247
     103         -1.763804        1.000000        0.00000230        0.00006374        0.00002090
     104         -1.763351        1.000000        0.00000015        0.00000578        0.00001791
     105         -1.763205        1.000000        0.00002397        0.00012292        0.00006115
     106         -1.763107        1.000000        0.00002266        0.00008794        0.00005126
     107         -1.762531        1.000000        0.00002928        0.00018840        0.00008499
     108         -1.762343        1.000000        0.00004163        0.00030071        0.00016079
     109         -1.761453        1.000000        0.00007517        0.00045033        0.00027445
     110         -1.760969        1.000000        0.00002268        0.00013612        0.00003987
     111         -1.760481        1.000000        0.00000388        0.00027777        0.00016770
     112         -1.760009        1.000000        0.00003001        0.00018874        0.00008412
     113         -1.759531        1.000000        0.00004579        0.00027782        0.00014134
     114         -1.759105        1.000000        0.00000115        0.00003897        0.00002779
     115         -1.758777        1.000000        0.00000757        0.00012616        0.00003839
     116         -1.757462        1.000000        0.00000187        0.00022895        0.00009173
     117         -1.756221        1.000000        0.00000051        0.00006748        0.00006498
     118         -1.755333        1.000000        0.00000016        0.00006538        0.00008262
     119         -1.754385        1.000000        0.00000011        0.00028030        0.00022618
     120         -1.752742        1.000000        0.00000001        0.00005053        0.00003802
     121         -1.131181        1.000000        0.00000000        0.00000002        0.00000000
     122         -1.128658        1.000000        0.00000000        0.00000002        0.00000000
     123         -1.128000        1.000000        0.00000000        0.00000002        0.00000000
     124         -1.126427        1.000000        0.00000000        0.00000000        0.00000000
     125         -1.120469        1.000000        0.00000000        0.00000000        0.00000000
     126         -1.119202        1.000000        0.00000000        0.00000000        0.00000000
     127         -1.117081        1.000000        0.00000000        0.00000000        0.00000000
     128         -1.116156        1.000000        0.00000000        0.00000000        0.00000000
     129         -1.115054        1.000000        0.00000000        0.00000001        0.00000000
     130         -1.111818        1.000000        0.00000000        0.00000000        0.00000000
     131         -1.111610        1.000000        0.00000000        0.00000000        0.00000000
     132         -1.110976        1.000000        0.00000000        0.00000000        0.00000000
     133         -1.109888        1.000000        0.00000000        0.00000000        0.00000000
     134         -1.108601        1.000000        0.00000000        0.00000000        0.00000000
     135         -1.108036        1.000000        0.00000000        0.00000000        0.00000000
     136         -1.107349        1.000000        0.00000000        0.00000000        0.00000000
     137         -1.106797        1.000000        0.00000000        0.00000000        0.00000000
     138         -1.106077        1.000000        0.00000000        0.00000000        0.00000000
     139         -1.104162        1.000000        0.00000000        0.00000001        0.00000000
     140         -1.102892        1.000000        0.00000000        0.00000000        0.00000000
     141         -1.102196        1.000000        0.00000000        0.00000000        0.00000000
     142         -1.101581        1.000000        0.00000000        0.00000000        0.00000000
     143         -1.101215        1.000000        0.00000000        0.00000000        0.00000000
     144         -1.099602        1.000000        0.00000000        0.00000000        0.00000000
     145         -1.098107        1.000000        0.00000000        0.00000000        0.00000000
     146         -1.097450        1.000000        0.00000000        0.00000000        0.00000000
     147         -1.097046        1.000000        0.00000000        0.00000000        0.00000000
     148         -1.095795        1.000000        0.00000000        0.00000000        0.00000000
     149         -1.095192        1.000000        0.00000000        0.00000000        0.00000000
     150         -1.093515        1.000000        0.00000000        0.00000000        0.00000000
     151         -1.093123        1.000000        0.00000000        0.00000000        0.00000000
     152         -1.092614        1.000000        0.00000000        0.00000000        0.00000000
     153         -1.091821        1.000000        0.00000000        0.00000001        0.00000000
     154         -1.090761        1.000000        0.00000000        0.00000000        0.00000000
     155         -1.090597        1.000000        0.00000000        0.00000000        0.00000000
     156         -1.089544        1.000000        0.00000000        0.00000003        0.00000000
     157         -1.088154        1.000000        0.00000000        0.00000001        0.00000000
     158         -1.086960        1.000000        0.00000000        0.00000002        0.00000000
     159         -1.086718        1.000000        0.00000000        0.00000000        0.00000000
     160         -1.085525        1.000000        0.00000000        0.00000007        0.00000001
     161         -1.084219        1.000000        0.00000000        0.00000000        0.00000000
     162         -1.082734        1.000000        0.00000000        0.00000001        0.00000000
     163         -1.082381        1.000000        0.00000000        0.00000003        0.00000000
     164         -1.080807        1.000000        0.00000000        0.00000001        0.00000000
     165         -1.080293        1.000000        0.00000000        0.00000000        0.00000000
     166         -1.079453        1.000000        0.00000000        0.00000000        0.00000000
     167         -1.078246        1.000000        0.00000000        0.00000001        0.00000000
     168         -1.077774        1.000000        0.00000000        0.00000003        0.00000000
     169         -1.077143        1.000000        0.00000000        0.00000000        0.00000000
     170         -1.076426        1.000000        0.00000000        0.00000000        0.00000000
     171         -1.076145        1.000000        0.00000000        0.00000000        0.00000000
     172         -1.074526        1.000000        0.00000000        0.00000001        0.00000000
     173         -1.074368        1.000000        0.00000000        0.00000000        0.00000000
     174         -1.073652        1.000000        0.00000000        0.00000000        0.00000000
     175         -1.072808        1.000000        0.00000000        0.00000000        0.00000000
     176         -1.072152        1.000000        0.00000000        0.00000000        0.00000000
     177         -1.071192        1.000000        0.00000000        0.00000000        0.00000000
     178         -1.070444        1.000000        0.00000000        0.00000001        0.00000000
     179         -1.070141        1.000000        0.00000001        0.00000005        0.00000000
     180         -1.069416        1.000000        0.00000000        0.00000000        0.00000000
     181         -1.069179        1.000000        0.00000000        0.00000000        0.00000000
     182         -1.067610        1.000000        0.00000000        0.00000001        0.00000000
     183         -1.066240        1.000000        0.00000000        0.00000001        0.00000000
     184         -1.065124        1.000000        0.00000000        0.00000000        0.00000000
     185         -1.064565        1.000000        0.00000000        0.00000001        0.00000000
     186         -1.063575        1.000000        0.00000000        0.00000001        0.00000000
     187         -1.062901        1.000000        0.00000000        0.00000000        0.00000000
     188         -1.062274        1.000000        0.00000000        0.00000003        0.00000000
     189         -1.061481        1.000000        0.00000000        0.00000001        0.00000000
     190         -1.061312        1.000000        0.00000000        0.00000000        0.00000000
     191         -1.060592        1.000000        0.00000000        0.00000001        0.00000000
     192         -1.059297        1.000000        0.00000000        0.00000001        0.00000000
     193         -1.058643        1.000000        0.00000000        0.00000000        0.00000000
     194         -1.058262        1.000000        0.00000000        0.00000000        0.00000000
     195         -1.057127        1.000000        0.00000000        0.00000003        0.00000000
     196         -1.056224        1.000000        0.00000000        0.00000003        0.00000000
     197         -1.056050        1.000000        0.00000000        0.00000002        0.00000000
     198         -1.054881        1.000000        0.00000000        0.00000000        0.00000000
     199         -1.054669        1.000000        0.00000000        0.00000000        0.00000000
     200         -1.053605        1.000000        0.00000000        0.00000002        0.00000000
     201         -1.053457        1.000000        0.00000000        0.00000001        0.00000000
     202         -1.052589        1.000000        0.00000000        0.00000000        0.00000000
     203         -1.052089        1.000000        0.00000000        0.00000000        0.00000000
     204         -1.051299        1.000000        0.00000000        0.00000001        0.00000000
     205         -1.050676        1.000000        0.00000000        0.00000001        0.00000000
     206         -1.050307        1.000000        0.00000000        0.00000001        0.00000000
     207         -1.049921        1.000000        0.00000000        0.00000001        0.00000000
     208         -1.049485        1.000000        0.00000000        0.00000000        0.00000000
     209         -1.049126        1.000000        0.00000000        0.00000001        0.00000000
     210         -1.048445        1.000000        0.00000000        0.00000003        0.00000000
     211         -1.048201        1.000000        0.00000000        0.00000001        0.00000000
     212         -1.047911        1.000000        0.00000000        0.00000000        0.00000000
     213         -1.047620        1.000000        0.00000000        0.00000001        0.00000000
     214         -1.046931        1.000000        0.00000000        0.00000001        0.00000000
     215         -1.046733        1.000000        0.00000000        0.00000000        0.00000000
     216         -1.046634        1.000000        0.00000000        0.00000001        0.00000000
     217         -1.045930        1.000000        0.00000000        0.00000000        0.00000000
     218         -1.045069        1.000000        0.00000000        0.00000000        0.00000000
     219         -1.044350        1.000000        0.00000000        0.00000000        0.00000000
     220         -1.043623        1.000000        0.00000000        0.00000001        0.00000000
     221         -1.043421        1.000000        0.00000000        0.00000002        0.00000000
     222         -1.042778        1.000000        0.00000000        0.00000000        0.00000000
     223         -1.042701        1.000000        0.00000000        0.00000001        0.00000000
     224         -1.042424        1.000000        0.00000000        0.00000000        0.00000000
     225         -1.041682        1.000000        0.00000001        0.00000004        0.00000000
     226         -1.041498        1.000000        0.00000000        0.00000001        0.00000000
     227         -1.040837        1.000000        0.00000002        0.00000006        0.00000001
     228         -1.040496        1.000000        0.00000000        0.00000000        0.00000000
     229         -1.040151        1.000000        0.00000000        0.00000001        0.00000000
     230         -1.039686        1.000000        0.00000000        0.00000001        0.00000000
     231         -1.038961        1.000000        0.00000000        0.00000003        0.00000000
     232         -1.038553        1.000000        0.00000000        0.00000001        0.00000000
     233         -1.038476        1.000000        0.00000000        0.00000003        0.00000000
     234         -1.038152        1.000000        0.00000000        0.00000000        0.00000000
     235         -1.038041        1.000000        0.00000000        0.00000000        0.00000000
     236         -1.036855        1.000000        0.00000000        0.00000002        0.00000000
     237         -1.036488        1.000000        0.00000000        0.00000003        0.00000000
     238         -1.036186        1.000000        0.00000000        0.00000001        0.00000000
     239         -1.036068        1.000000        0.00000000        0.00000000        0.00000000
     240         -1.035757        1.000000        0.00000001        0.00000006        0.00000001
     241         -1.035291        1.000000        0.00000001        0.00000002        0.00000000
     242         -1.035048        1.000000        0.00000000        0.00000000        0.00000000
     243         -1.035000        1.000000        0.00000000        0.00000000        0.00000000
     244         -1.034454        1.000000        0.00000000        0.00000000        0.00000000
     245         -1.034219        1.000000        0.00000000        0.00000001        0.00000000
     246         -1.033874        1.000000        0.00000000        0.00000001        0.00000000
     247         -1.033507        1.000000        0.00000000        0.00000000        0.00000000
     248         -1.033219        1.000000        0.00000000        0.00000000        0.00000000
     249         -1.033056        1.000000        0.00000000        0.00000000        0.00000000
     250         -1.032307        1.000000        0.00000000        0.00000001        0.00000000
     251         -1.031324        1.000000        0.00000000        0.00000003        0.00000000
     252         -1.031144        1.000000        0.00000000        0.00000001        0.00000000
     253         -1.030643        1.000000        0.00000000        0.00000001        0.00000000
     254         -1.030284        1.000000        0.00000000        0.00000003        0.00000000
     255         -1.030062        1.000000        0.00000000        0.00000002        0.00000000
     256         -1.029818        1.000000        0.00000000        0.00000003        0.00000000
     257         -1.028552        1.000000        0.00000000        0.00000001        0.00000000
     258         -1.027578        1.000000        0.00000000        0.00000002        0.00000000
     259         -1.027121        1.000000        0.00000000        0.00000000        0.00000000
     260         -1.026880        1.000000        0.00000000        0.00000001        0.00000000
     261         -1.026226        1.000000        0.00000000        0.00000000        0.00000000
     262         -1.025765        1.000000        0.00000000        0.00000001        0.00000000
     263         -1.025299        1.000000        0.00000000        0.00000000        0.00000000
     264         -1.025158        1.000000        0.00000003        0.00000010        0.00000001
     265         -1.025007        1.000000        0.00000001        0.00000006        0.00000001
     266         -1.024422        1.000000        0.00000000        0.00000000        0.00000000
     267         -1.023793        1.000000        0.00000000        0.00000001        0.00000000
     268         -1.023594        1.000000        0.00000011        0.00000044        0.00000004
     269         -1.023069        1.000000        0.00000000        0.00000000        0.00000000
     270         -1.022603        1.000000        0.00000000        0.00000000        0.00000000
     271         -1.022074        1.000000        0.00000000        0.00000000        0.00000000
     272         -1.021695        1.000000        0.00000000        0.00000000        0.00000000
     273         -1.021372        1.000000        0.00000000        0.00000000        0.00000000
     274         -1.021076        1.000000        0.00000000        0.00000002        0.00000000
     275         -1.019492        1.000000        0.00000000        0.00000000        0.00000000
     276         -1.018003        1.000000        0.00000000        0.00000000        0.00000000
     277         -1.016408        1.000000        0.00000000        0.00000000        0.00000000
     278         -1.016278        1.000000        0.00000000        0.00000000        0.00000000
     279         -1.015338        1.000000        0.00000000        0.00000003        0.00000000
     280         -1.013851        1.000000        0.00000000        0.00000000        0.00000000
     281         -1.010223        1.000000        0.00000000        0.00000000        0.00000000
     282         -1.009666        1.000000        0.00000000        0.00000000        0.00000000
     283         -1.007726        1.000000        0.00000000        0.00000000        0.00000000
     284         -1.007300        1.000000        0.00000000        0.00000000        0.00000000
     285         -1.006916        1.000000        0.00000000        0.00000000        0.00000000
     286         -0.889442        1.000000        0.01189656        0.00052893        0.00000442
     287         -0.869424        1.000000        0.01740004        0.00080037        0.00000602
     288         -0.867225        1.000000        0.00047715        0.00073109        0.00003682
     289         -0.864755        1.000000        0.00004977        0.00176434        0.00004847
     290         -0.860947        1.000000        0.02112168        0.00082010        0.00001463
     291         -0.846899        1.000000        0.00442940        0.00041725        0.00001973
     292         -0.844423        1.000000        0.00843612        0.00096579        0.00002759
     293         -0.843782        1.000000        0.01250492        0.00064859        0.00005062
     294         -0.840445        1.000000        0.00106420        0.00143329        0.00003649
     295         -0.821748        1.000000        0.00429277        0.00078711        0.00005383
     296         -0.818927        1.000000        0.00843850        0.00054204        0.00009928
     297         -0.814033        1.000000        0.02505094        0.00040120        0.00016052
     298         -0.808071        1.000000        0.00248144        0.00108982        0.00003371
     299         -0.807076        1.000000        0.00535495        0.00160842        0.00015670
     300         -0.806003        1.000000        0.00033747        0.00079830        0.00014647
     301         -0.805433        1.000000        0.02182724        0.00081678        0.00006300
     302         -0.803208        1.000000        0.01827956        0.00025361        0.00001457
     303         -0.802271        1.000000        0.00709296        0.00131046        0.00003220
     304         -0.801014        1.000000        0.02545849        0.00047450        0.00011327
     305         -0.800419        1.000000        0.00016304        0.00055346        0.00004429
     306         -0.800163        1.000000        0.01070189        0.00063636        0.00002943
     307         -0.798966        1.000000        0.01707075        0.00120982        0.00007355