# Projected DOS for list 318 of 1 atoms, at iteration step i = 0, E(Fermi) =    -0.245567 a.u.
#     MO Eigenvalue [a.u.]      Occupation                 s                 p                 d
       1         -3.122063        1.000000        0.00000015        0.00000080        0.00000003
       2         -3.121278        1.000000        0.00004645        0.00009186        0.00000709
       3         -3.121021        1.000000        0.00000886        0.00001162        0.00000066
       4         -3.120578        1.000000        0.00000650        0.00002662        0.00000229
       5         -3.120271        1.000000        0.00000033        0.00000203        0.00000030
       6         -3.119857        1.000000        0.00005516        0.00009090        0.00000562
       7         -3.119652        1.000000        0.00216436        0.00326859        0.00017433
       8         -3.119624        1.000000        0.00036972        0.00078207        0.00005055
       9         -3.119219        1.000000        0.00000114        0.00000142        0.00000014
      10         -3.119023        1.000000        0.00004718        0.00006025        0.00000741
      11         -3.118913        1.000000        0.00005596        0.00006934        0.00000912
      12         -3.118874        1.000000        0.00000547        0.00000683        0.00000097
      13         -3.118317        1.000000        0.00000169        0.00002442        0.00000343
      14         -3.118249        1.000000        0.00007684        0.00023965        0.00002761
      15         -3.117895        1.000000        0.00127310        0.00353181        0.00036764
      16         -3.117383        1.000000        0.00000031        0.00000467        0.00000072
      17         -3.117165        1.000000        0.00093920        0.00222590        0.00014885
      18         -3.116815        1.000000        0.00030612        0.00172945        0.00027871
      19         -3.116436        1.000000        0.00059985        0.00306278        0.00040705
      20         -3.116021        1.000000        0.00006945        0.00027933        0.00003872
      21         -3.115852        1.000000        0.00003539        0.00019460        0.00002663
      22         -3.115668        1.000000        0.00000036        0.00001246        0.00000315
      23         -3.115368        1.000000        0.00000246        0.00003775        0.00000441
      24         -3.115339        1.000000        0.00000073        0.00002029        0.00000220
      25         -3.115041        1.000000        0.00000035        0.00000323        0.00000073
      26         -3.114366        1.000000        0.00000180        0.00000353        0.00000065
      27         -3.113951        1.000000        0.00000105        0.00003578        0.00000490
      28         -3.113764        1.000000        0.00000235        0.00000124        0.00000024
      29         -3.112534        1.000000        0.00002909        0.00001198        0.00000464
      30         -3.111679        1.000000        0.00000748        0.00010236        0.00000956
      31         -1.784233        1.000000        0.00002377        0.00008650        0.00000837
      32         -1.782870        1.000000        0.00000808        0.00002080        0.00000174
      33         -1.782324        1.000000        0.00000647        0.00002122        0.00000254
      34         -1.782130        1.000000        0.00000072        0.00001456        0.00000583
      35         -1.781736        1.000000        0.00005509        0.00017141        0.00001701
      36         -1.781230        1.000000        0.00000172        0.00003846        0.00001767
      37         -1.780847        1.000000        0.00002502        0.00008926        0.00001122
      38         -1.780487        1.000000        0.00019823        0.00051302        0.00003026
      39         -1.780184        1.000000        0.00005211        0.00017182        0.00001824
      40         -1.779550        1.000000        0.00002041        0.00007438        0.00001459
      41         -1.779259        1.000000        0.00000694        0.00006403        0.00002418
      42         -1.778921        1.000000        0.00007202        0.00021621        0.00001853
      43         -1.778390        1.000000        0.00029438        0.00074040        0.00004005
      44         -1.778140        1.000000        0.00004413        0.00035146        0.00010109
      45         -1.777912        1.000000        0.00007880        0.00030242        0.00006820
      46         -1.777514        1.000000        0.00008049        0.00027071        0.00003579
      47         -1.777362        1.000000        0.00000190        0.00001215        0.00000435
      48         -1.776787        1.000000        0.00055908        0.00139518        0.00007196
      49         -1.776537        1.000000        0.00009239        0.00036563        0.00005687
      50         -1.776457        1.000000        0.00007822        0.00028480        0.00005099
      51         -1.776029        1.000000        0.00013417        0.00035715        0.00002587
      52         -1.774038        1.000000        0.00004628        0.00017399        0.00002678
      53         -1.773797        1.000000        0.00003016        0.00006853        0.00000607
      54         -1.773665        1.000000        0.00002741        0.00009042        0.00002246
      55         -1.772725        1.000000        0.00001067        0.00001979        0.00000236
      56         -1.772546        1.000000        0.00000728        0.00003597        0.00001014
      57         -1.772041        1.000000        0.00000006        0.00000595        0.00000259
      58         -1.771662        1.000000        0.00018014        0.00034737        0.00001118
      59         -1.771364        1.000000        0.00013187        0.00026554        0.00001399
      60         -1.770813        1.000000        0.00016949        0.00036550        0.00001003
      61         -1.770640        1.000000        0.00010849        0.00023455        0.00001668
      62         -1.770449        1.000000        0.00014167        0.00029006        0.00000736
      63         -1.770188        1.000000        0.00000169        0.00008895        0.00004100
      64         -1.770126        1.000000        0.00018717        0.00043153        0.00001469
      65         -1.769991        1.000000        0.00000763        0.00006463        0.00002586
      66         -1.769845        1.000000        0.00012608        0.00040824        0.00007591
      67         -1.769763        1.000000        0.00000318        0.00040312        0.00015045
      68         -1.769661        1.000000        0.00000111        0.00004857        0.00002878
      69         -1.769465        1.000000        0.00002819        0.00018257        0.00005669
      70         -1.769351        1.000000        0.00010802        0.00037474        0.00006335
      71         -1.769328        1.000000        0.00001344        0.00019594        0.00008730
      72         -1.769216        1.000000        0.00001789        0.00022797        0.00008728
      73         -1.769129        1.000000        0.00001790        0.00015397        0.00005108
      74         -1.769070        1.000000        0.00002819        0.00008254        0.00001698
      75         -1.768941        1.000000        0.00006427        0.00018149        0.00001860
      76         -1.768822        1.000000        0.00000580        0.00036049        0.00013858
      77         -1.768707        1.000000        0.00005302        0.00014970        0.00001627
      78         -1.768585        1.000000        0.00000596        0.00022959        0.00010878
      79         -1.768439        1.000000        0.00002886        0.00018637        0.00006500
      80         -1.768329        1.000000        0.00030725        0.00080713        0.00009465
      81         -1.768089        1.000000        0.00000028        0.00019136        0.00008234
      82         -1.767883        1.000000        0.00001564        0.00085004        0.00032326
      83         -1.767662        1.000000        0.00000093        0.00023558        0.00008857
      84         -1.767495        1.000000        0.00003217        0.00079639        0.00032085
      85         -1.767311        1.000000        0.00001420        0.00071692        0.00032826
      86         -1.767266        1.000000        0.00000305        0.00002577        0.00002546
      87         -1.767060        1.000000        0.00003880        0.00015240        0.00004317
      88         -1.767025        1.000000        0.00009217        0.00081137        0.00022671
      89         -1.766872        1.000000        0.00000356        0.00006777        0.00001852
      90         -1.766524        1.000000        0.00001841        0.00010129        0.00001430
      91         -1.766405        1.000000        0.00000059        0.00001714        0.00001154
      92         -1.766254        1.000000        0.00000380        0.00014053        0.00005950
      93         -1.766123        1.000000        0.00002118        0.00007547        0.00002085
      94         -1.765857        1.000000        0.00000561        0.00003750        0.00001058
      95         -1.765515        1.000000        0.00000690        0.00018705        0.00005520
      96         -1.765181        1.000000        0.00001442        0.00006136        0.00002590
      97         -1.765105        1.000000        0.00000872        0.00027696        0.00010926
      98         -1.764967        1.000000        0.00004869        0.00022996        0.00004691
      99         -1.764710        1.000000        0.00001745        0.00018651        0.00009668
     100         -1.764440        1.000000        0.00000294        0.00002927        0.00001533
     101         -1.764248        1.000000        0.00000375        0.00010505        0.00004322
     102         -1.763945        1.000000        0.00001694        0.00010620        0.00002193
     103         -1.763804        1.000000        0.00001288        0.00006571        0.00002249
     104         -1.763351        1.000000        0.00000126        0.00002294        0.00002247
     105         -1.763205        1.000000        0.00002820        0.00028514        0.00011821
     106         -1.763107        1.000000        0.00000127        0.00003541        0.00001224
     107         -1.762531        1.000000        0.00004567        0.00009832        0.00001873
     108         -1.762343        1.000000        0.00000021        0.00017930        0.00011471
     109         -1.761453        1.000000        0.00004980        0.00017939        0.00007036
     110         -1.760969        1.000000        0.00000213        0.00001198        0.00001382
     111         -1.760481        1.000000        0.00006359        0.00024327        0.00007691
     112         -1.760009        1.000000        0.00000059        0.00000707        0.00001464
     113         -1.759531        1.000000        0.00000011        0.00003181        0.00001690
     114         -1.759105        1.000000        0.00012469        0.00058217        0.00016491
     115         -1.758777        1.000000        0.00000001        0.00000553        0.00000277
     116         -1.757462        1.000000        0.00000037        0.00000159        0.00000077
     117         -1.756221        1.000000        0.00000331        0.00022273        0.00008574
     118         -1.755333        1.000000        0.00000010        0.00000086        0.00000092
     119         -1.754385        1.000000        0.00000227        0.00024190        0.00009282
     120         -1.752742        1.000000        0.00000472        0.00020993        0.00014495
     121         -1.131181        1.000000        0.00000000        0.00000000        0.00000000
     122         -1.128658        1.000000        0.00000000        0.00000000        0.00000000
     123         -1.128000        1.000000        0.00000000        0.00000000        0.00000000
     124         -1.126427        1.000000        0.00000000        0.00000000        0.00000000
     125         -1.120469        1.000000        0.00000000        0.00000000        0.00000000
     126         -1.119202        1.000000        0.00000000        0.00000000        0.00000000
     127         -1.117081        1.000000        0.00000000        0.00000001        0.00000000
     128         -1.116156        1.000000        0.00000000        0.00000001        0.00000000
     129         -1.115054        1.000000        0.00000000        0.00000000        0.00000000
     130         -1.111818        1.000000        0.00000000        0.00000000        0.00000000
     131         -1.111610        1.000000        0.00000000        0.00000000        0.00000000
     132         -1.110976        1.000000        0.00000000        0.00000000        0.00000000
     133         -1.109888        1.000000        0.00000000        0.00000000        0.00000000
     134         -1.108601        1.000000        0.00000000        0.00000000        0.00000000
     135         -1.108036        1.000000        0.00000000        0.00000000        0.00000000
     136         -1.107349        1.000000        0.00000000        0.00000000        0.00000000
     137         -1.106797        1.000000        0.00000000        0.00000000        0.00000000
     138         -1.106077        1.000000        0.00000000        0.00000000        0.00000000
     139         -1.104162        1.000000        0.00000000        0.00000000        0.00000000
     140         -1.102892        1.000000        0.00000000        0.00000000        0.00000000
     141         -1.102196        1.000000        0.00000000        0.00000001        0.00000000
     142         -1.101581        1.000000        0.00000000        0.00000000        0.00000000
     143         -1.101215        1.000000        0.00000000        0.00000000        0.00000000
     144         -1.099602        1.000000        0.00000000        0.00000000        0.00000000
     145         -1.098107        1.000000        0.00000000        0.00000001        0.00000000
     146         -1.097450        1.000000        0.00000000        0.00000001        0.00000000
     147         -1.097046        1.000000        0.00000000        0.00000000        0.00000000
     148         -1.095795        1.000000        0.00000000        0.00000000        0.00000000
     149         -1.095192        1.000000        0.00000000        0.00000000        0.00000000
     150         -1.093515        1.000000        0.00000000        0.00000001        0.00000000
     151         -1.093123        1.000000        0.00000001        0.00000001        0.00000000
     152         -1.092614        1.000000        0.00000000        0.00000000        0.00000000
     153         -1.091821        1.000000        0.00000000        0.00000000        0.00000000
     154         -1.090761        1.000000        0.00000000        0.00000000        0.00000000
     155         -1.090597        1.000000        0.00000003        0.00000007        0.00000000
     156         -1.089544        1.000000        0.00000002        0.00000004        0.00000000
     157         -1.088154        1.000000        0.00000003        0.00000004        0.00000000
     158         -1.086960        1.000000        0.00000000        0.00000000        0.00000000
     159         -1.086718        1.000000        0.00000000        0.00000000        0.00000000
     160         -1.085525        1.000000        0.00000001        0.00000001        0.00000000
     161         -1.084219        1.000000        0.00000000        0.00000000        0.00000000
     162         -1.082734        1.000000        0.00000000        0.00000000        0.00000000
     163         -1.082381        1.000000        0.00000000        0.00000000        0.00000000
     164         -1.080807        1.000000        0.00000000        0.00000000        0.00000000
     165         -1.080293        1.000000        0.00000000        0.00000000        0.00000000
     166         -1.079453        1.000000        0.00000000        0.00000000        0.00000000
     167         -1.078246        1.000000        0.00000000        0.00000000        0.00000000
     168         -1.077774        1.000000        0.00000000        0.00000000        0.00000000
     169         -1.077143        1.000000        0.00000000        0.00000000        0.00000000
     170         -1.076426        1.000000        0.00000000        0.00000000        0.00000000
     171         -1.076145        1.000000        0.00000000        0.00000000        0.00000000
     172         -1.074526        1.000000        0.00000000        0.00000000        0.00000000
     173         -1.074368        1.000000        0.00000001        0.00000000        0.00000000
     174         -1.073652        1.000000        0.00000000        0.00000001        0.00000000
     175         -1.072808        1.000000        0.00000000        0.00000000        0.00000000
     176         -1.072152        1.000000        0.00000000        0.00000000        0.00000000
     177         -1.071192        1.000000        0.00000000        0.00000000        0.00000000
     178         -1.070444        1.000000        0.00000003        0.00000000        0.00000000
     179         -1.070141        1.000000        0.00000000        0.00000000        0.00000000
     180         -1.069416        1.000000        0.00000001        0.00000000        0.00000000
     181         -1.069179        1.000000        0.00000001        0.00000000        0.00000000
     182         -1.067610        1.000000        0.00000001        0.00000001        0.00000000
     183         -1.066240        1.000000        0.00000000        0.00000000        0.00000000
     184         -1.065124        1.000000        0.00000000        0.00000000        0.00000000
     185         -1.064565        1.000000        0.00000000        0.00000000        0.00000000
     186         -1.063575        1.000000        0.00000001        0.00000002        0.00000000
     187         -1.062901        1.000000        0.00000003        0.00000002        0.00000000
     188         -1.062274        1.000000        0.00000002        0.00000002        0.00000000
     189         -1.061481        1.000000        0.00000001        0.00000001        0.00000000
     190         -1.061312        1.000000        0.00000000        0.00000000        0.00000000
     191         -1.060592        1.000000        0.00000000        0.00000001        0.00000000
     192         -1.059297        1.000000        0.00000000        0.00000000        0.00000000
     193         -1.058643        1.000000        0.00000001        0.00000001        0.00000000
     194         -1.058262        1.000000        0.00000002        0.00000001        0.00000000
     195         -1.057127        1.000000        0.00000001        0.00000001        0.00000000
     196         -1.056224        1.000000        0.00000000        0.00000000        0.00000000
     197         -1.056050        1.000000        0.00000000        0.00000000        0.00000000
     198         -1.054881        1.000000        0.00000000        0.00000000        0.00000000
     199         -1.054669        1.000000        0.00000000        0.00000000        0.00000000
     200         -1.053605        1.000000        0.00000000        0.00000000        0.00000000
     201         -1.053457        1.000000        0.00000000        0.00000000        0.00000000
     202         -1.052589        1.000000        0.00000000        0.00000000        0.00000000
     203         -1.052089        1.000000        0.00000000        0.00000000        0.00000000
     204         -1.051299        1.000000        0.00000000        0.00000000        0.00000000
     205         -1.050676        1.000000        0.00000000        0.00000000        0.00000000
     206         -1.050307        1.000000        0.00000000        0.00000000        0.00000000
     207         -1.049921        1.000000        0.00000000        0.00000001        0.00000000
     208         -1.049485        1.000000        0.00000000        0.00000000        0.00000000
     209         -1.049126        1.000000        0.00000000        0.00000000        0.00000000
     210         -1.048445        1.000000        0.00000000        0.00000001        0.00000000
     211         -1.048201        1.000000        0.00000000        0.00000001        0.00000000
     212         -1.047911        1.000000        0.00000000        0.00000000        0.00000000
     213         -1.047620        1.000000        0.00000000        0.00000000        0.00000000
     214         -1.046931        1.000000        0.00000000        0.00000000        0.00000000
     215         -1.046733        1.000000        0.00000000        0.00000000        0.00000000
     216         -1.046634        1.000000        0.00000000        0.00000000        0.00000000
     217         -1.045930        1.000000        0.00000000        0.00000000        0.00000000
     218         -1.045069        1.000000        0.00000000        0.00000000        0.00000000
     219         -1.044350        1.000000        0.00000000        0.00000000        0.00000000
     220         -1.043623        1.000000        0.00000000        0.00000000        0.00000000
     221         -1.043421        1.000000        0.00000000        0.00000001        0.00000000
     222         -1.042778        1.000000        0.00000000        0.00000000        0.00000000
     223         -1.042701        1.000000        0.00000000        0.00000000        0.00000000
     224         -1.042424        1.000000        0.00000000        0.00000001        0.00000000
     225         -1.041682        1.000000        0.00000000        0.00000002        0.00000000
     226         -1.041498        1.000000        0.00000000        0.00000000        0.00000000
     227         -1.040837        1.000000        0.00000001        0.00000003        0.00000000
     228         -1.040496        1.000000        0.00000000        0.00000000        0.00000000
     229         -1.040151        1.000000        0.00000000        0.00000000        0.00000000
     230         -1.039686        1.000000        0.00000000        0.00000000        0.00000000
     231         -1.038961        1.000000        0.00000000        0.00000000        0.00000000
     232         -1.038553        1.000000        0.00000000        0.00000000        0.00000000
     233         -1.038476        1.000000        0.00000000        0.00000000        0.00000000
     234         -1.038152        1.000000        0.00000000        0.00000000        0.00000000
     235         -1.038041        1.000000        0.00000000        0.00000000        0.00000000
     236         -1.036855        1.000000        0.00000000        0.00000000        0.00000000
     237         -1.036488        1.000000        0.00000000        0.00000000        0.00000000
     238         -1.036186        1.000000        0.00000000        0.00000000        0.00000000
     239         -1.036068        1.000000        0.00000000        0.00000000        0.00000000
     240         -1.035757        1.000000        0.00000000        0.00000001        0.00000000
     241         -1.035291        1.000000        0.00000000        0.00000001        0.00000000
     242         -1.035048        1.000000        0.00000000        0.00000000        0.00000000
     243         -1.035000        1.000000        0.00000000        0.00000000        0.00000000
     244         -1.034454        1.000000        0.00000000        0.00000000        0.00000000
     245         -1.034219        1.000000        0.00000000        0.00000000        0.00000000
     246         -1.033874        1.000000        0.00000000        0.00000000        0.00000000
     247         -1.033507        1.000000        0.00000000        0.00000000        0.00000000
     248         -1.033219        1.000000        0.00000000        0.00000000        0.00000000
     249         -1.033056        1.000000        0.00000000        0.00000000        0.00000000
     250         -1.032307        1.000000        0.00000000        0.00000000        0.00000000
     251         -1.031324        1.000000        0.00000000        0.00000001        0.00000000
     252         -1.031144        1.000000        0.00000000        0.00000000        0.00000000
     253         -1.030643        1.000000        0.00000000        0.00000000        0.00000000
     254         -1.030284        1.000000        0.00000000        0.00000000        0.00000000
     255         -1.030062        1.000000        0.00000000        0.00000000        0.00000000
     256         -1.029818        1.000000        0.00000000        0.00000000        0.00000000
     257         -1.028552        1.000000        0.00000000        0.00000000        0.00000000
     258         -1.027578        1.000000        0.00000000        0.00000000        0.00000000
     259         -1.027121        1.000000        0.00000000        0.00000000        0.00000000
     260         -1.026880        1.000000        0.00000000        0.00000001        0.00000000
     261         -1.026226        1.000000        0.00000000        0.00000000        0.00000000
     262         -1.025765        1.000000        0.00000000        0.00000000        0.00000000
     263         -1.025299        1.000000        0.00000000        0.00000000        0.00000000
     264         -1.025158        1.000000        0.00000001        0.00000002        0.00000000
     265         -1.025007        1.000000        0.00000001        0.00000001        0.00000000
     266         -1.024422        1.000000        0.00000000        0.00000000        0.00000000
     267         -1.023793        1.000000        0.00000000        0.00000000        0.00000000
     268         -1.023594        1.000000        0.00000004        0.00000014        0.00000002
     269         -1.023069        1.000000        0.00000000        0.00000000        0.00000000
     270         -1.022603        1.000000        0.00000000        0.00000000        0.00000000
     271         -1.022074        1.000000        0.00000000        0.00000000        0.00000000
     272         -1.021695        1.000000        0.00000000        0.00000000        0.00000000
     273         -1.021372        1.000000        0.00000000        0.00000000        0.00000000
     274         -1.021076        1.000000        0.00000000        0.00000002        0.00000000
     275         -1.019492        1.000000        0.00000000        0.00000000        0.00000000
     276         -1.018003        1.000000        0.00000000        0.00000000        0.00000000
     277         -1.016408        1.000000        0.00000000        0.00000001        0.00000000
     278         -1.016278        1.000000        0.00000000        0.00000000        0.00000000
     279         -1.015338        1.000000        0.00000000        0.00000000        0.00000000
     280         -1.013851        1.000000        0.00000000        0.00000000        0.00000000
     281         -1.010223        1.000000        0.00000000        0.00000000        0.00000000
     282         -1.009666        1.000000        0.00000000        0.00000000        0.00000000
     283         -1.007726        1.000000        0.00000000        0.00000000        0.00000000
     284         -1.007300        1.000000        0.00000000        0.00000000        0.00000000
     285         -1.006916        1.000000        0.00000000        0.00000000        0.00000000
     286         -0.889442        1.000000        0.00307725        0.00018595        0.00000267
     287         -0.869424        1.000000        0.00380414        0.00033755        0.00004089
     288         -0.867225        1.000000        0.00104818        0.00034696        0.00000665
     289         -0.864755        1.000000        0.00022474        0.00084144        0.00001798
     290         -0.860947        1.000000        0.01036030        0.00054905        0.00000077
     291         -0.846899        1.000000        0.00116795        0.00150813        0.00003602
     292         -0.844423        1.000000        0.00040874        0.00035643        0.00003675
     293         -0.843782        1.000000        0.00735257        0.00051681        0.00002609
     294         -0.840445        1.000000        0.01380012        0.00074144        0.00000934
     295         -0.821748        1.000000        0.00505789        0.00019653        0.00008962
     296         -0.818927        1.000000        0.00001875        0.00072801        0.00002579
     297         -0.814033        1.000000        0.00467272        0.00015583        0.00003936
     298         -0.808071        1.000000        0.00002954        0.00044228        0.00002316
     299         -0.807076        1.000000        0.00183499        0.00015924        0.00000885
     300         -0.806003        1.000000        0.00016416        0.00026777        0.00002250
     301         -0.805433        1.000000        0.00185494        0.00011809        0.00003679
     302         -0.803208        1.000000        0.01189521        0.00049724        0.00005733
     303         -0.802271        1.000000        0.00358865        0.00022327        0.00000681
     304         -0.801014        1.000000        0.00848572        0.00054058        0.00001895
     305         -0.800419        1.000000        0.00387529        0.00070180        0.00005515
     306         -0.800163        1.000000        0.00142395        0.00053530        0.00003847
     307         -0.798966        1.000000        0.00319924        0.00007898        0.00003915