# Projected DOS for list 357 of 1 atoms, at iteration step i = 0, E(Fermi) =    -0.245567 a.u.
#     MO Eigenvalue [a.u.]      Occupation                 s                 p
       1         -3.122063        1.000000        0.00000540        0.00003910
       2         -3.121278        1.000000        0.00001299        0.00007156
       3         -3.121021        1.000000        0.00001436        0.00007753
       4         -3.120578        1.000000        0.00000006        0.00000723
       5         -3.120271        1.000000        0.00000021        0.00000998
       6         -3.119857        1.000000        0.00000021        0.00000082
       7         -3.119652        1.000000        0.00000033        0.00000169
       8         -3.119624        1.000000        0.00000113        0.00000569
       9         -3.119219        1.000000        0.00000222        0.00001318
      10         -3.119023        1.000000        0.00000504        0.00002718
      11         -3.118913        1.000000        0.00000150        0.00001078
      12         -3.118874        1.000000        0.00000022        0.00000264
      13         -3.118317        1.000000        0.00000014        0.00000134
      14         -3.118249        1.000000        0.00000612        0.00002440
      15         -3.117895        1.000000        0.00000140        0.00000408
      16         -3.117383        1.000000        0.00000004        0.00000005
      17         -3.117165        1.000000        0.00000024        0.00000116
      18         -3.116815        1.000000        0.00000001        0.00000009
      19         -3.116436        1.000000        0.00000001        0.00000015
      20         -3.116021        1.000000        0.00000002        0.00000334
      21         -3.115852        1.000000        0.00000000        0.00000010
      22         -3.115668        1.000000        0.00000003        0.00000003
      23         -3.115368        1.000000        0.00000027        0.00000338
      24         -3.115339        1.000000        0.00000003        0.00000020
      25         -3.115041        1.000000        0.00000001        0.00000009
      26         -3.114366        1.000000        0.00000005        0.00000054
      27         -3.113951        1.000000        0.00000001        0.00000001
      28         -3.113764        1.000000        0.00000000        0.00000015
      29         -3.112534        1.000000        0.00000000        0.00000000
      30         -3.111679        1.000000        0.00000002        0.00000005
      31         -1.784233        1.000000        0.00000043        0.00000088
      32         -1.782870        1.000000        0.00000040        0.00000162
      33         -1.782324        1.000000        0.00000010        0.00000019
      34         -1.782130        1.000000        0.00000006        0.00000026
      35         -1.781736        1.000000        0.00000185        0.00000457
      36         -1.781230        1.000000        0.00000009        0.00000031
      37         -1.780847        1.000000        0.00000001        0.00000014
      38         -1.780487        1.000000        0.00000000        0.00000048
      39         -1.780184        1.000000        0.00000079        0.00000238
      40         -1.779550        1.000000        0.00000037        0.00000070
      41         -1.779259        1.000000        0.00000007        0.00000037
      42         -1.778921        1.000000        0.00000080        0.00000210
      43         -1.778390        1.000000        0.00000000        0.00000024
      44         -1.778140        1.000000        0.00000005        0.00000019
      45         -1.777912        1.000000        0.00000002        0.00000021
      46         -1.777514        1.000000        0.00000042        0.00000134
      47         -1.777362        1.000000        0.00000014        0.00000070
      48         -1.776787        1.000000        0.00000000        0.00000032
      49         -1.776537        1.000000        0.00000009        0.00000024
      50         -1.776457        1.000000        0.00000000        0.00000014
      51         -1.776029        1.000000        0.00000008        0.00000047
      52         -1.774038        1.000000        0.00000042        0.00000216
      53         -1.773797        1.000000        0.00000022        0.00000439
      54         -1.773665        1.000000        0.00000010        0.00000010
      55         -1.772725        1.000000        0.00000001        0.00000045
      56         -1.772546        1.000000        0.00000019        0.00000478
      57         -1.772041        1.000000        0.00000000        0.00000017
      58         -1.771662        1.000000        0.00000010        0.00000259
      59         -1.771364        1.000000        0.00000010        0.00000183
      60         -1.770813        1.000000        0.00000001        0.00000016
      61         -1.770640        1.000000        0.00000007        0.00000051
      62         -1.770449        1.000000        0.00000013        0.00000056
      63         -1.770188        1.000000        0.00000016        0.00000047
      64         -1.770126        1.000000        0.00000024        0.00000102
      65         -1.769991        1.000000        0.00000003        0.00000007
      66         -1.769845        1.000000        0.00000000        0.00000077
      67         -1.769763        1.000000        0.00000011        0.00000025
      68         -1.769661        1.000000        0.00000001        0.00000061
      69         -1.769465        1.000000        0.00000005        0.00000037
      70         -1.769351        1.000000        0.00000032        0.00000118
      71         -1.769328        1.000000        0.00000016        0.00000006
      72         -1.769216        1.000000        0.00000000        0.00000058
      73         -1.769129        1.000000        0.00000003        0.00000108
      74         -1.769070        1.000000        0.00000009        0.00000004
      75         -1.768941        1.000000        0.00000004        0.00000182
      76         -1.768822        1.000000        0.00000003        0.00000014
      77         -1.768707        1.000000        0.00000009        0.00000027
      78         -1.768585        1.000000        0.00000003        0.00000013
      79         -1.768439        1.000000        0.00000016        0.00000052
      80         -1.768329        1.000000        0.00000001        0.00000009
      81         -1.768089        1.000000        0.00000007        0.00000028
      82         -1.767883        1.000000        0.00000002        0.00000003
      83         -1.767662        1.000000        0.00000019        0.00000046
      84         -1.767495        1.000000        0.00000004        0.00000021
      85         -1.767311        1.000000        0.00000009        0.00000013
      86         -1.767266        1.000000        0.00000002        0.00000048
      87         -1.767060        1.000000        0.00000005        0.00000012
      88         -1.767025        1.000000        0.00000001        0.00000009
      89         -1.766872        1.000000        0.00000008        0.00000029
      90         -1.766524        1.000000        0.00000000        0.00000012
      91         -1.766405        1.000000        0.00000000        0.00000003
      92         -1.766254        1.000000        0.00000002        0.00000009
      93         -1.766123        1.000000        0.00000001        0.00000010
      94         -1.765857        1.000000        0.00000009        0.00000037
      95         -1.765515        1.000000        0.00000005        0.00000007
      96         -1.765181        1.000000        0.00000001        0.00000007
      97         -1.765105        1.000000        0.00000018        0.00000038
      98         -1.764967        1.000000        0.00000000        0.00000001
      99         -1.764710        1.000000        0.00000001        0.00000005
     100         -1.764440        1.000000        0.00000004        0.00000007
     101         -1.764248        1.000000        0.00000013        0.00000024
     102         -1.763945        1.000000        0.00000000        0.00000004
     103         -1.763804        1.000000        0.00000001        0.00000005
     104         -1.763351        1.000000        0.00000001        0.00000032
     105         -1.763205        1.000000        0.00000000        0.00000013
     106         -1.763107        1.000000        0.00000002        0.00000023
     107         -1.762531        1.000000        0.00000002        0.00000008
     108         -1.762343        1.000000        0.00000001        0.00000008
     109         -1.761453        1.000000        0.00000002        0.00000008
     110         -1.760969        1.000000        0.00000000        0.00000002
     111         -1.760481        1.000000        0.00000002        0.00000003
     112         -1.760009        1.000000        0.00000000        0.00000004
     113         -1.759531        1.000000        0.00000000        0.00000002
     114         -1.759105        1.000000        0.00000000        0.00000000
     115         -1.758777        1.000000        0.00000001        0.00000002
     116         -1.757462        1.000000        0.00000001        0.00000002
     117         -1.756221        1.000000        0.00000000        0.00000000
     118         -1.755333        1.000000        0.00000000        0.00000001
     119         -1.754385        1.000000        0.00000000        0.00000000
     120         -1.752742        1.000000        0.00000000        0.00000000
     121         -1.131181        1.000000        0.00000753        0.00001415
     122         -1.128658        1.000000        0.00001052        0.00001946
     123         -1.128000        1.000000        0.00001179        0.00002068
     124         -1.126427        1.000000        0.00000068        0.00000128
     125         -1.120469        1.000000        0.00000968        0.00001815
     126         -1.119202        1.000000        0.00001379        0.00002122
     127         -1.117081        1.000000        0.00001902        0.00003111
     128         -1.116156        1.000000        0.00005778        0.00008453
     129         -1.115054        1.000000        0.00001108        0.00001321
     130         -1.111818        1.000000        0.00018155        0.00021998
     131         -1.111610        1.000000        0.00017118        0.00016527
     132         -1.110976        1.000000        0.00006261        0.00006443
     133         -1.109888        1.000000        0.00005328        0.00004791
     134         -1.108601        1.000000        0.00000327        0.00000617
     135         -1.108036        1.000000        0.00001982        0.00002700
     136         -1.107349        1.000000        0.00008414        0.00012208
     137         -1.106797        1.000000        0.00002078        0.00002345
     138         -1.106077        1.000000        0.00023146        0.00018150
     139         -1.104162        1.000000        0.00012761        0.00010259
     140         -1.102892        1.000000        0.00025081        0.00023071
     141         -1.102196        1.000000        0.00006422        0.00005835
     142         -1.101581        1.000000        0.00005083        0.00005408
     143         -1.101215        1.000000        0.00002353        0.00001743
     144         -1.099602        1.000000        0.00011584        0.00011675
     145         -1.098107        1.000000        0.00034341        0.00026075
     146         -1.097450        1.000000        0.00035615        0.00026112
     147         -1.097046        1.000000        0.00001852        0.00001837
     148         -1.095795        1.000000        0.00100142        0.00066794
     149         -1.095192        1.000000        0.00005291        0.00004149
     150         -1.093515        1.000000        0.00067739        0.00044985
     151         -1.093123        1.000000        0.00085230        0.00065756
     152         -1.092614        1.000000        0.00024459        0.00017068
     153         -1.091821        1.000000        0.00042624        0.00035190
     154         -1.090761        1.000000        0.00099127        0.00062816
     155         -1.090597        1.000000        0.00000022        0.00000139
     156         -1.089544        1.000000        0.00000215        0.00000676
     157         -1.088154        1.000000        0.00000016        0.00000949
     158         -1.086960        1.000000        0.00000169        0.00000230
     159         -1.086718        1.000000        0.00002046        0.00001201
     160         -1.085525        1.000000        0.00021397        0.00014149
     161         -1.084219        1.000000        0.00106943        0.00062226
     162         -1.082734        1.000000        0.00001052        0.00002948
     163         -1.082381        1.000000        0.00248390        0.00142888
     164         -1.080807        1.000000        0.00410311        0.00209102
     165         -1.080293        1.000000        0.01717113        0.00900982
     166         -1.079453        1.000000        0.00000412        0.00000538
     167         -1.078246        1.000000        0.00000119        0.00000554
     168         -1.077774        1.000000        0.02037894        0.01035150
     169         -1.077143        1.000000        0.00059554        0.00028177
     170         -1.076426        1.000000        0.00002646        0.00001852
     171         -1.076145        1.000000        0.00497925        0.00248257
     172         -1.074526        1.000000        0.03012506        0.01453520
     173         -1.074368        1.000000        0.01219678        0.00579048
     174         -1.073652        1.000000        0.01180327        0.00558359
     175         -1.072808        1.000000        0.00082576        0.00044569
     176         -1.072152        1.000000        0.00121108        0.00058907
     177         -1.071192        1.000000        0.00249618        0.00118774
     178         -1.070444        1.000000        0.00180880        0.00086917
     179         -1.070141        1.000000        0.00238154        0.00110022
     180         -1.069416        1.000000        0.00221768        0.00100642
     181         -1.069179        1.000000        0.00504339        0.00220213
     182         -1.067610        1.000000        0.00000690        0.00001559
     183         -1.066240        1.000000        0.00086568        0.00037301
     184         -1.065124        1.000000        0.00329052        0.00133316
     185         -1.064565        1.000000        0.00228174        0.00101016
     186         -1.063575        1.000000        0.00096179        0.00051386
     187         -1.062901        1.000000        0.00341426        0.00145986
     188         -1.062274        1.000000        0.00236223        0.00100439
     189         -1.061481        1.000000        0.00006834        0.00004840
     190         -1.061312        1.000000        0.00101367        0.00049707
     191         -1.060592        1.000000        0.00035294        0.00012727
     192         -1.059297        1.000000        0.00097607        0.00034019
     193         -1.058643        1.000000        0.00047483        0.00025670
     194         -1.058262        1.000000        0.00010101        0.00006600
     195         -1.057127        1.000000        0.00103593        0.00035774
     196         -1.056224        1.000000        0.00109307        0.00046630
     197         -1.056050        1.000000        0.00002748        0.00001043
     198         -1.054881        1.000000        0.00187427        0.00073932
     199         -1.054669        1.000000        0.00083664        0.00031430
     200         -1.053605        1.000000        0.00009947        0.00003452
     201         -1.053457        1.000000        0.00020409        0.00007153
     202         -1.052589        1.000000        0.00036567        0.00013434
     203         -1.052089        1.000000        0.00009943        0.00006211
     204         -1.051299        1.000000        0.00002576        0.00002527
     205         -1.050676        1.000000        0.00011287        0.00010226
     206         -1.050307        1.000000        0.00000103        0.00000366
     207         -1.049921        1.000000        0.00004674        0.00001815
     208         -1.049485        1.000000        0.00004661        0.00000850
     209         -1.049126        1.000000        0.00009415        0.00001999
     210         -1.048445        1.000000        0.00000175        0.00001002
     211         -1.048201        1.000000        0.00016809        0.00005524
     212         -1.047911        1.000000        0.00004034        0.00000739
     213         -1.047620        1.000000        0.00000971        0.00001106
     214         -1.046931        1.000000        0.00001410        0.00002350
     215         -1.046733        1.000000        0.00017701        0.00006877
     216         -1.046634        1.000000        0.00007576        0.00001654
     217         -1.045930        1.000000        0.00000276        0.00000541
     218         -1.045069        1.000000        0.00024712        0.00010038
     219         -1.044350        1.000000        0.00000097        0.00000051
     220         -1.043623        1.000000        0.00002999        0.00002128
     221         -1.043421        1.000000        0.00235525        0.00080805
     222         -1.042778        1.000000        0.00005356        0.00002005
     223         -1.042701        1.000000        0.00007308        0.00002510
     224         -1.042424        1.000000        0.00008133        0.00003349
     225         -1.041682        1.000000        0.00000078        0.00000141
     226         -1.041498        1.000000        0.00013028        0.00006039
     227         -1.040837        1.000000        0.00019003        0.00006284
     228         -1.040496        1.000000        0.00000227        0.00000361
     229         -1.040151        1.000000        0.00010349        0.00004173
     230         -1.039686        1.000000        0.00000092        0.00000070
     231         -1.038961        1.000000        0.00002156        0.00001161
     232         -1.038553        1.000000        0.00000260        0.00000955
     233         -1.038476        1.000000        0.00000395        0.00000445
     234         -1.038152        1.000000        0.00000231        0.00000348
     235         -1.038041        1.000000        0.00000017        0.00000263
     236         -1.036855        1.000000        0.00006389        0.00002189
     237         -1.036488        1.000000        0.00000967        0.00000412
     238         -1.036186        1.000000        0.00003434        0.00000965
     239         -1.036068        1.000000        0.00000015        0.00000474
     240         -1.035757        1.000000        0.00007816        0.00002157
     241         -1.035291        1.000000        0.00000767        0.00000818
     242         -1.035048        1.000000        0.00001810        0.00000608
     243         -1.035000        1.000000        0.00001964        0.00001197
     244         -1.034454        1.000000        0.00002540        0.00001103
     245         -1.034219        1.000000        0.00008678        0.00004574
     246         -1.033874        1.000000        0.00025077        0.00007153
     247         -1.033507        1.000000        0.00001607        0.00000831
     248         -1.033219        1.000000        0.00040501        0.00010641
     249         -1.033056        1.000000        0.00008057        0.00001875
     250         -1.032307        1.000000        0.00009512        0.00003972
     251         -1.031324        1.000000        0.00002291        0.00001173
     252         -1.031144        1.000000        0.00000779        0.00002688
     253         -1.030643        1.000000        0.00006488        0.00004852
     254         -1.030284        1.000000        0.00000069        0.00000113
     255         -1.030062        1.000000        0.00000012        0.00000081
     256         -1.029818        1.000000        0.00000118        0.00000138
     257         -1.028552        1.000000        0.00001834        0.00000364
     258         -1.027578        1.000000        0.00001541        0.00000571
     259         -1.027121        1.000000        0.00000144        0.00000111
     260         -1.026880        1.000000        0.00005785        0.00000634
     261         -1.026226        1.000000        0.00006669        0.00001795
     262         -1.025765        1.000000        0.00000315        0.00000022
     263         -1.025299        1.000000        0.00000271        0.00000049
     264         -1.025158        1.000000        0.00000141        0.00000096
     265         -1.025007        1.000000        0.00000653        0.00000554
     266         -1.024422        1.000000        0.00000214        0.00000292
     267         -1.023793        1.000000        0.00000020        0.00000023
     268         -1.023594        1.000000        0.00000009        0.00000080
     269         -1.023069        1.000000        0.00000375        0.00000448
     270         -1.022603        1.000000        0.00000075        0.00000161
     271         -1.022074        1.000000        0.00000411        0.00000292
     272         -1.021695        1.000000        0.00000017        0.00000033
     273         -1.021372        1.000000        0.00000032        0.00000008
     274         -1.021076        1.000000        0.00000100        0.00000026
     275         -1.019492        1.000000        0.00029446        0.00012476
     276         -1.018003        1.000000        0.00000272        0.00000094
     277         -1.016408        1.000000        0.00000202        0.00000043
     278         -1.016278        1.000000        0.00000015        0.00000012
     279         -1.015338        1.000000        0.00000489        0.00000102
     280         -1.013851        1.000000        0.00000002        0.00000000
     281         -1.010223        1.000000        0.00000132        0.00000889
     282         -1.009666        1.000000        0.00000001        0.00000000
     283         -1.007726        1.000000        0.00001215        0.00002434
     284         -1.007300        1.000000        0.00000435        0.00000269
     285         -1.006916        1.000000        0.00000002        0.00000001
     286         -0.889442        1.000000        0.00002386        0.00033734
     287         -0.869424        1.000000        0.00000899        0.00014579
     288         -0.867225        1.000000        0.00011043        0.00090979
     289         -0.864755        1.000000        0.00002450        0.00022015
     290         -0.860947        1.000000        0.00005693        0.00044601
     291         -0.846899        1.000000        0.00002470        0.00015255
     292         -0.844423        1.000000        0.00012193        0.00066995
     293         -0.843782        1.000000        0.00000116        0.00009496
     294         -0.840445        1.000000        0.00007026        0.00042323
     295         -0.821748        1.000000        0.00007278        0.00032789
     296         -0.818927        1.000000        0.00011480        0.00040943
     297         -0.814033        1.000000        0.00010532        0.00056872
     298         -0.808071        1.000000        0.00001387        0.00017283
     299         -0.807076        1.000000        0.00004477        0.00022314
     300         -0.806003        1.000000        0.00001984        0.00016493
     301         -0.805433        1.000000        0.00015558        0.00070037
     302         -0.803208        1.000000        0.00022233        0.00081309
     303         -0.802271        1.000000        0.00003872        0.00016681
     304         -0.801014        1.000000        0.00002444        0.00017186
     305         -0.800419        1.000000        0.00007422        0.00021573
     306         -0.800163        1.000000        0.00000002        0.00001952
     307         -0.798966        1.000000        0.00002442        0.00009652
     308         -0.796270        1.000000        0.00027380        0.00097240
     309         -0.795746        1.000000        0.00000632        0.00003426
     310         -0.794333        1.000000        0.00002111        0.00010275
     311         -0.792293        1.000000        0.00007688        0.00033666
     312         -0.791548        1.000000        0.00000662        0.00000452
     313         -0.790603        1.000000        0.00014301        0.00036944
     314         -0.790424        1.000000        0.00001532        0.00005094
     315         -0.789930        1.000000        0.00020766        0.00066775
     316         -0.788450        1.000000        0.00000830        0.00009246
     317         -0.787526        1.000000        0.00006221        0.00016565
     318         -0.786788        1.000000        0.00002302        0.00007898
     319         -0.781836        1.000000        0.00005095        0.00014919
     320         -0.780998        1.000000        0.00004529        0.00015678
     321         -0.780477        1.000000        0.00000159        0.00002649
     322         -0.779060        1.000000        0.00000166        0.00000749
     323         -0.778943        1.000000        0.00000191        0.00001682
     324         -0.777233        1.000000        0.00002420        0.00005656
     325         -0.775897        1.000000        0.00010199        0.00023324
     326         -0.774887        1.000000        0.00006771        0.00014895
     327         -0.773671        1.000000        0.00004282        0.00010969
     328         -0.773422        1.000000        0.00001440        0.00003132
     329         -0.772414        1.000000        0.00019013        0.00042757
     330         -0.771266        1.000000        0.00002971        0.00007474
     331         -0.770604        1.000000        0.00000112        0.00001253
     332         -0.769886        1.000000        0.00003054        0.00006891
     333         -0.769439        1.000000        0.00003064        0.00005101
     334         -0.769009        1.000000        0.00000017        0.00000953
     335         -0.767483        1.000000        0.00000096        0.00001283
     336         -0.766717        1.000000        0.00006503        0.00015735
     337         -0.765490        1.000000        0.00002148        0.00006664
     338         -0.763700        1.000000        0.00000344        0.00002857
     339         -0.762625        1.000000        0.00000092        0.00000422
     340         -0.761653        1.000000        0.00000009        0.00000499
     341         -0.761196        1.000000        0.00007203        0.00015752
     342         -0.759265        1.000000        0.00002348        0.00004616
     343         -0.758410        1.000000        0.00007844        0.00015050
     344         -0.755260        1.000000        0.00002720        0.00005424
     345         -0.754586        1.000000        0.00000116        0.00000343
     346         -0.703685        1.000000        0.00000222        0.00000072
     347         -0.693847        1.000000        0.00000332        0.00000048
     348         -0.690060        1.000000        0.00000747        0.00000349
     349         -0.688902        1.000000        0.00000183        0.00000043
     350         -0.684111        1.000000        0.00000337        0.00000282
     351         -0.681092        1.000000        0.00000004        0.00000032
     352         -0.678905        1.000000        0.00000158        0.00000593
     353         -0.676982        1.000000        0.00000709        0.00000074
     354         -0.673929        1.000000        0.00000607        0.00000480
     355         -0.673106        1.000000        0.00000126        0.00000241
     356         -0.670728        1.000000        0.00001602        0.00000413
     357         -0.670092        1.000000        0.00001131        0.00000502
     358         -0.669168        1.000000        0.00000005        0.00000047
     359         -0.667801        1.000000        0.00001053        0.00001014
     360         -0.665884        1.000000        0.00000006        0.00000016
     361         -0.664702        1.000000        0.00000036        0.00000043
     362         -0.662263        1.000000        0.00001860        0.00000716
     363         -0.660875        1.000000        0.00003710        0.00001999
     364         -0.658191        1.000000        0.00000049        0.00000056
     365         -0.657373        1.000000        0.00000115        0.00000577
     366         -0.655967        1.000000        0.00002426        0.00001367
     367         -0.655536        1.000000        0.00000055        0.00000164
     368         -0.653752        1.000000        0.00001456        0.00000767
     369         -0.651127        1.000000        0.00000120        0.00000025
     370         -0.648938        1.000000        0.00000481        0.00000023
     371         -0.647875        1.000000        0.00000094        0.00000400
     372         -0.644925        1.000000        0.00004395        0.00004170
     373         -0.644581        1.000000        0.00002699        0.00002489
     374         -0.641910        1.000000        0.00000755        0.00000089
     375         -0.641212        1.000000        0.00005526        0.00001268
     376         -0.639876        1.000000        0.00000421        0.00000209
     377         -0.637901        1.000000        0.00001609        0.00000259