# Projected DOS for list 100 of 1 atoms, at iteration step i = 0, E(Fermi) =    -0.245567 a.u.
#     MO Eigenvalue [a.u.]      Occupation                 s                 p                 d
       1         -3.122063        1.000000        0.00000000        0.00000000        0.00000000
       2         -3.121278        1.000000        0.00000000        0.00000000        0.00000000
       3         -3.121021        1.000000        0.00000000        0.00000000        0.00000000
       4         -3.120578        1.000000        0.00000000        0.00000000        0.00000000
       5         -3.120271        1.000000        0.00000000        0.00000000        0.00000000
       6         -3.119857        1.000000        0.00000000        0.00000000        0.00000000
       7         -3.119652        1.000000        0.00000000        0.00000000        0.00000000
       8         -3.119624        1.000000        0.00000000        0.00000000        0.00000000
       9         -3.119219        1.000000        0.00000000        0.00000000        0.00000000
      10         -3.119023        1.000000        0.00000000        0.00000000        0.00000000
      11         -3.118913        1.000000        0.00000000        0.00000000        0.00000000
      12         -3.118874        1.000000        0.00000000        0.00000000        0.00000000
      13         -3.118317        1.000000        0.00000000        0.00000000        0.00000000
      14         -3.118249        1.000000        0.00000000        0.00000000        0.00000000
      15         -3.117895        1.000000        0.00000000        0.00000000        0.00000000
      16         -3.117383        1.000000        0.00000000        0.00000000        0.00000000
      17         -3.117165        1.000000        0.00000000        0.00000000        0.00000000
      18         -3.116815        1.000000        0.00000000        0.00000000        0.00000000
      19         -3.116436        1.000000        0.00000000        0.00000000        0.00000000
      20         -3.116021        1.000000        0.00000000        0.00000000        0.00000000
      21         -3.115852        1.000000        0.00000000        0.00000000        0.00000000
      22         -3.115668        1.000000        0.00000000        0.00000000        0.00000000
      23         -3.115368        1.000000        0.00000000        0.00000000        0.00000000
      24         -3.115339        1.000000        0.00000000        0.00000000        0.00000000
      25         -3.115041        1.000000        0.00000000        0.00000000        0.00000000
      26         -3.114366        1.000000        0.00000000        0.00000000        0.00000000
      27         -3.113951        1.000000        0.00000000        0.00000000        0.00000000
      28         -3.113764        1.000000        0.00000000        0.00000000        0.00000000
      29         -3.112534        1.000000        0.00000000        0.00000000        0.00000000
      30         -3.111679        1.000000        0.00000000        0.00000000        0.00000000
      31         -1.784233        1.000000        0.00000000        0.00000000        0.00000000
      32         -1.782870        1.000000        0.00000000        0.00000000        0.00000000
      33         -1.782324        1.000000        0.00000000        0.00000000        0.00000000
      34         -1.782130        1.000000        0.00000000        0.00000000        0.00000000
      35         -1.781736        1.000000        0.00000000        0.00000000        0.00000000
      36         -1.781230        1.000000        0.00000000        0.00000000        0.00000000
      37         -1.780847        1.000000        0.00000000        0.00000000        0.00000000
      38         -1.780487        1.000000        0.00000000        0.00000000        0.00000000
      39         -1.780184        1.000000        0.00000000        0.00000000        0.00000000
      40         -1.779550        1.000000        0.00000000        0.00000000        0.00000000
      41         -1.779259        1.000000        0.00000000        0.00000000        0.00000000
      42         -1.778921        1.000000        0.00000000        0.00000000        0.00000000
      43         -1.778390        1.000000        0.00000000        0.00000000        0.00000000
      44         -1.778140        1.000000        0.00000000        0.00000000        0.00000000
      45         -1.777912        1.000000        0.00000000        0.00000000        0.00000000
      46         -1.777514        1.000000        0.00000000        0.00000000        0.00000000
      47         -1.777362        1.000000        0.00000000        0.00000000        0.00000000
      48         -1.776787        1.000000        0.00000000        0.00000000        0.00000000
      49         -1.776537        1.000000        0.00000000        0.00000000        0.00000000
      50         -1.776457        1.000000        0.00000000        0.00000000        0.00000000
      51         -1.776029        1.000000        0.00000000        0.00000000        0.00000000
      52         -1.774038        1.000000        0.00000000        0.00000000        0.00000000
      53         -1.773797        1.000000        0.00000000        0.00000000        0.00000000
      54         -1.773665        1.000000        0.00000000        0.00000000        0.00000000
      55         -1.772725        1.000000        0.00000000        0.00000000        0.00000000
      56         -1.772546        1.000000        0.00000000        0.00000000        0.00000000
      57         -1.772041        1.000000        0.00000000        0.00000000        0.00000000
      58         -1.771662        1.000000        0.00000000        0.00000000        0.00000000
      59         -1.771364        1.000000        0.00000000        0.00000000        0.00000000
      60         -1.770813        1.000000        0.00000000        0.00000000        0.00000000
      61         -1.770640        1.000000        0.00000000        0.00000000        0.00000000
      62         -1.770449        1.000000        0.00000000        0.00000000        0.00000000
      63         -1.770188        1.000000        0.00000000        0.00000000        0.00000000
      64         -1.770126        1.000000        0.00000000        0.00000000        0.00000000
      65         -1.769991        1.000000        0.00000000        0.00000000        0.00000000
      66         -1.769845        1.000000        0.00000000        0.00000000        0.00000000
      67         -1.769763        1.000000        0.00000000        0.00000000        0.00000000
      68         -1.769661        1.000000        0.00000000        0.00000000        0.00000000
      69         -1.769465        1.000000        0.00000000        0.00000000        0.00000000
      70         -1.769351        1.000000        0.00000000        0.00000000        0.00000000
      71         -1.769328        1.000000        0.00000000        0.00000000        0.00000000
      72         -1.769216        1.000000        0.00000000        0.00000000        0.00000000
      73         -1.769129        1.000000        0.00000000        0.00000000        0.00000000
      74         -1.769070        1.000000        0.00000000        0.00000000        0.00000000
      75         -1.768941        1.000000        0.00000000        0.00000000        0.00000000
      76         -1.768822        1.000000        0.00000000        0.00000000        0.00000000
      77         -1.768707        1.000000        0.00000000        0.00000000        0.00000000
      78         -1.768585        1.000000        0.00000000        0.00000000        0.00000000
      79         -1.768439        1.000000        0.00000000        0.00000000        0.00000000
      80         -1.768329        1.000000        0.00000000        0.00000000        0.00000000
      81         -1.768089        1.000000        0.00000000        0.00000000        0.00000000
      82         -1.767883        1.000000        0.00000000        0.00000000        0.00000000
      83         -1.767662        1.000000        0.00000000        0.00000000        0.00000000
      84         -1.767495        1.000000        0.00000000        0.00000000        0.00000000
      85         -1.767311        1.000000        0.00000000        0.00000000        0.00000000
      86         -1.767266        1.000000        0.00000000        0.00000000        0.00000000
      87         -1.767060        1.000000        0.00000000        0.00000000        0.00000000
      88         -1.767025        1.000000        0.00000000        0.00000000        0.00000000
      89         -1.766872        1.000000        0.00000000        0.00000000        0.00000000
      90         -1.766524        1.000000        0.00000000        0.00000000        0.00000000
      91         -1.766405        1.000000        0.00000000        0.00000000        0.00000000
      92         -1.766254        1.000000        0.00000000        0.00000000        0.00000000
      93         -1.766123        1.000000        0.00000000        0.00000000        0.00000000
      94         -1.765857        1.000000        0.00000000        0.00000000        0.00000000
      95         -1.765515        1.000000        0.00000000        0.00000000        0.00000000
      96         -1.765181        1.000000        0.00000000        0.00000000        0.00000000
      97         -1.765105        1.000000        0.00000000        0.00000000        0.00000000
      98         -1.764967        1.000000        0.00000000        0.00000000        0.00000000
      99         -1.764710        1.000000        0.00000000        0.00000000        0.00000000
     100         -1.764440        1.000000        0.00000000        0.00000000        0.00000000
     101         -1.764248        1.000000        0.00000000        0.00000000        0.00000000
     102         -1.763945        1.000000        0.00000000        0.00000000        0.00000000
     103         -1.763804        1.000000        0.00000000        0.00000000        0.00000000
     104         -1.763351        1.000000        0.00000000        0.00000000        0.00000000
     105         -1.763205        1.000000        0.00000000        0.00000000        0.00000000
     106         -1.763107        1.000000        0.00000000        0.00000000        0.00000000
     107         -1.762531        1.000000        0.00000000        0.00000000        0.00000000
     108         -1.762343        1.000000        0.00000000        0.00000000        0.00000000
     109         -1.761453        1.000000        0.00000000        0.00000000        0.00000000
     110         -1.760969        1.000000        0.00000000        0.00000000        0.00000000
     111         -1.760481        1.000000        0.00000000        0.00000000        0.00000000
     112         -1.760009        1.000000        0.00000000        0.00000000        0.00000000
     113         -1.759531        1.000000        0.00000000        0.00000000        0.00000000
     114         -1.759105        1.000000        0.00000000        0.00000000        0.00000000
     115         -1.758777        1.000000        0.00000000        0.00000000        0.00000000
     116         -1.757462        1.000000        0.00000000        0.00000000        0.00000000
     117         -1.756221        1.000000        0.00000000        0.00000000        0.00000000
     118         -1.755333        1.000000        0.00000000        0.00000000        0.00000000
     119         -1.754385        1.000000        0.00000000        0.00000000        0.00000000
     120         -1.752742        1.000000        0.00000000        0.00000000        0.00000000
     121         -1.131181        1.000000        0.00214570        0.00004657        0.00007276
     122         -1.128658        1.000000        0.00017968        0.00010244        0.00001078
     123         -1.128000        1.000000        0.00451033        0.00005701        0.00015876
     124         -1.126427        1.000000        0.00159268        0.00105729        0.00008268
     125         -1.120469        1.000000        0.00208445        0.00011089        0.00006313
     126         -1.119202        1.000000        0.00017482        0.00002860        0.00000742
     127         -1.117081        1.000000        0.00000187        0.00002549        0.00000068
     128         -1.116156        1.000000        0.00001962        0.00004949        0.00000335
     129         -1.115054        1.000000        0.00002048        0.00001280        0.00000126
     130         -1.111818        1.000000        0.00005765        0.00055695        0.00000823
     131         -1.111610        1.000000        0.00009355        0.00000236        0.00000295
     132         -1.110976        1.000000        0.01304188        0.00007837        0.00031658
     133         -1.109888        1.000000        0.02501590        0.00011692        0.00058466
     134         -1.108601        1.000000        0.00396157        0.00234824        0.00007777
     135         -1.108036        1.000000        0.03260439        0.00014938        0.00074327
     136         -1.107349        1.000000        0.00440995        0.00016246        0.00009573
     137         -1.106797        1.000000        0.00021855        0.00018511        0.00001927
     138         -1.106077        1.000000        0.00792970        0.00005568        0.00017184
     139         -1.104162        1.000000        0.00000763        0.00019052        0.00000125
     140         -1.102892        1.000000        0.00333380        0.00021205        0.00008305
     141         -1.102196        1.000000        0.00000062        0.00028336        0.00000596
     142         -1.101581        1.000000        0.00124914        0.00012424        0.00003619
     143         -1.101215        1.000000        0.00004714        0.00065194        0.00000579
     144         -1.099602        1.000000        0.00120771        0.00072752        0.00002201
     145         -1.098107        1.000000        0.00046094        0.00015213        0.00001562
     146         -1.097450        1.000000        0.00026142        0.00065101        0.00001926
     147         -1.097046        1.000000        0.00012441        0.00167991        0.00001555
     148         -1.095795        1.000000        0.00214950        0.00000719        0.00004164
     149         -1.095192        1.000000        0.00017499        0.00211225        0.00001376
     150         -1.093515        1.000000        0.00000383        0.00044567        0.00001671
     151         -1.093123        1.000000        0.00018983        0.00018970        0.00000975
     152         -1.092614        1.000000        0.00154820        0.00007130        0.00006003
     153         -1.091821        1.000000        0.00023458        0.00019566        0.00000898
     154         -1.090761        1.000000        0.00436330        0.00036843        0.00006475
     155         -1.090597        1.000000        0.00106117        0.00000492        0.00001910
     156         -1.089544        1.000000        0.00038834        0.00019130        0.00000669
     157         -1.088154        1.000000        0.00693123        0.00061002        0.00007308
     158         -1.086960        1.000000        0.00029857        0.00010151        0.00001354
     159         -1.086718        1.000000        0.00139667        0.00030856        0.00001641
     160         -1.085525        1.000000        0.00156200        0.00002374        0.00002215
     161         -1.084219        1.000000        0.00131458        0.00000640        0.00003681
     162         -1.082734        1.000000        0.00329232        0.00061464        0.00004380
     163         -1.082381        1.000000        0.00000284        0.00003234        0.00000339
     164         -1.080807        1.000000        0.00120696        0.00028258        0.00000670
     165         -1.080293        1.000000        0.00569054        0.00034964        0.00004190
     166         -1.079453        1.000000        0.00105541        0.00005400        0.00001487
     167         -1.078246        1.000000        0.00706709        0.00026455        0.00009316
     168         -1.077774        1.000000        0.00000415        0.00000053        0.00000014
     169         -1.077143        1.000000        0.00525778        0.00005334        0.00004387
     170         -1.076426        1.000000        0.00009422        0.00010413        0.00000308
     171         -1.076145        1.000000        0.00347476        0.00009022        0.00003108
     172         -1.074526        1.000000        0.00925227        0.00027422        0.00007837
     173         -1.074368        1.000000        0.00527244        0.00012045        0.00004333
     174         -1.073652        1.000000        0.00066211        0.00000631        0.00001058
     175         -1.072808        1.000000        0.00159779        0.00012171        0.00003961
     176         -1.072152        1.000000        0.00000355        0.00002210        0.00002746
     177         -1.071192        1.000000        0.00515471        0.00007544        0.00003142
     178         -1.070444        1.000000        0.00395063        0.00007609        0.00003441
     179         -1.070141        1.000000        0.00286563        0.00011939        0.00004814
     180         -1.069416        1.000000        0.00259125        0.00013253        0.00002863
     181         -1.069179        1.000000        0.00075106        0.00001074        0.00000458
     182         -1.067610        1.000000        0.00042381        0.00012410        0.00003381
     183         -1.066240        1.000000        0.00119475        0.00000995        0.00000832
     184         -1.065124        1.000000        0.00006831        0.00001644        0.00000414
     185         -1.064565        1.000000        0.00310836        0.00008840        0.00001940
     186         -1.063575        1.000000        0.00000810        0.00003107        0.00000236
     187         -1.062901        1.000000        0.00064454        0.00003889        0.00001406
     188         -1.062274        1.000000        0.00007789        0.00003570        0.00000312
     189         -1.061481        1.000000        0.00292477        0.00022641        0.00001751
     190         -1.061312        1.000000        0.00339787        0.00016433        0.00004258
     191         -1.060592        1.000000        0.00984947        0.00045314        0.00005414
     192         -1.059297        1.000000        0.00074154        0.00011378        0.00001809
     193         -1.058643        1.000000        0.00092814        0.00006592        0.00000955
     194         -1.058262        1.000000        0.00105471        0.00006372        0.00002099
     195         -1.057127        1.000000        0.00327981        0.00018872        0.00003275
     196         -1.056224        1.000000        0.00172716        0.00002485        0.00001270
     197         -1.056050        1.000000        0.00327165        0.00018175        0.00003657
     198         -1.054881        1.000000        0.03356303        0.00074604        0.00015500
     199         -1.054669        1.000000        0.01785227        0.00028844        0.00012156
     200         -1.053605        1.000000        0.01520684        0.00042871        0.00002989
     201         -1.053457        1.000000        0.03103947        0.00084170        0.00009195
     202         -1.052589        1.000000        0.00061977        0.00001814        0.00001989
     203         -1.052089        1.000000        0.00388059        0.00002549        0.00001874
     204         -1.051299        1.000000        0.02972899        0.00080950        0.00010696
     205         -1.050676        1.000000        0.00006008        0.00002676        0.00000793
     206         -1.050307        1.000000        0.00275501        0.00004652        0.00001173
     207         -1.049921        1.000000        0.00778574        0.00028449        0.00011826
     208         -1.049485        1.000000        0.00003944        0.00011453        0.00004126
     209         -1.049126        1.000000        0.00634340        0.00005305        0.00002120
     210         -1.048445        1.000000        0.00185590        0.00009682        0.00000694
     211         -1.048201        1.000000        0.00150336        0.00013348        0.00005135
     212         -1.047911        1.000000        0.00967845        0.00009471        0.00005227
     213         -1.047620        1.000000        0.00239029        0.00002409        0.00001902
     214         -1.046931        1.000000        0.00000609        0.00000943        0.00000284
     215         -1.046733        1.000000        0.00152295        0.00002047        0.00001001
     216         -1.046634        1.000000        0.00020236        0.00012416        0.00009823
     217         -1.045930        1.000000        0.00351551        0.00010355        0.00004466
     218         -1.045069        1.000000        0.00046725        0.00002705        0.00003660
     219         -1.044350        1.000000        0.00078757        0.00012776        0.00004557
     220         -1.043623        1.000000        0.00041906        0.00001072        0.00000510
     221         -1.043421        1.000000        0.00018659        0.00000325        0.00000305
     222         -1.042778        1.000000        0.00851722        0.00033205        0.00053784
     223         -1.042701        1.000000        0.00028398        0.00005866        0.00002851
     224         -1.042424        1.000000        0.00023856        0.00002852        0.00003740
     225         -1.041682        1.000000        0.00001222        0.00004728        0.00003217
     226         -1.041498        1.000000        0.00043057        0.00000879        0.00000404
     227         -1.040837        1.000000        0.00041657        0.00004836        0.00004189
     228         -1.040496        1.000000        0.00203535        0.00004543        0.00002061
     229         -1.040151        1.000000        0.00063697        0.00003290        0.00001149
     230         -1.039686        1.000000        0.00038213        0.00006928        0.00006145
     231         -1.038961        1.000000        0.00043371        0.00000257        0.00000098
     232         -1.038553        1.000000        0.00230741        0.00010595        0.00010907
     233         -1.038476        1.000000        0.00095592        0.00003170        0.00000957
     234         -1.038152        1.000000        0.00083024        0.00000847        0.00002271
     235         -1.038041        1.000000        0.00696136        0.00005966        0.00001200
     236         -1.036855        1.000000        0.04548249        0.00021521        0.00006861
     237         -1.036488        1.000000        0.02359471        0.00008195        0.00003395
     238         -1.036186        1.000000        0.01787379        0.00032584        0.00011356
     239         -1.036068        1.000000        0.01278166        0.00005078        0.00006699
     240         -1.035757        1.000000        0.00195591        0.00000571        0.00000228
     241         -1.035291        1.000000        0.00274062        0.00002910        0.00000966
     242         -1.035048        1.000000        0.00000985        0.00001709        0.00000774
     243         -1.035000        1.000000        0.00608228        0.00002666        0.00000635
     244         -1.034454        1.000000        0.01454128        0.00010313        0.00004347
     245         -1.034219        1.000000        0.00011019        0.00000419        0.00000113
     246         -1.033874        1.000000        0.00454215        0.00003055        0.00001076
     247         -1.033507        1.000000        0.00085102        0.00002625        0.00000527
     248         -1.033219        1.000000        0.00020941        0.00000632        0.00000471
     249         -1.033056        1.000000        0.00000101        0.00000860        0.00000575
     250         -1.032307        1.000000        0.00009425        0.00000070        0.00000038
     251         -1.031324        1.000000        0.00039328        0.00000285        0.00000046
     252         -1.031144        1.000000        0.00029915        0.00000253        0.00000291
     253         -1.030643        1.000000        0.00004609        0.00000238        0.00000236
     254         -1.030284        1.000000        0.00009765        0.00000557        0.00000165
     255         -1.030062        1.000000        0.00039072        0.00000722        0.00000225
     256         -1.029818        1.000000        0.00010577        0.00000165        0.00000037
     257         -1.028552        1.000000        0.00002045        0.00000246        0.00000177
     258         -1.027578        1.000000        0.00001361        0.00000008        0.00000003
     259         -1.027121        1.000000        0.00000311        0.00000191        0.00000072
     260         -1.026880        1.000000        0.00003521        0.00000109        0.00000111
     261         -1.026226        1.000000        0.00001802        0.00000046        0.00000103
     262         -1.025765        1.000000        0.00005798        0.00002014        0.00000197
     263         -1.025299        1.000000        0.00006663        0.00000182        0.00000034
     264         -1.025158        1.000000        0.00003678        0.00000040        0.00000005
     265         -1.025007        1.000000        0.00000469        0.00000011        0.00000006
     266         -1.024422        1.000000        0.00002430        0.00000093        0.00000052
     267         -1.023793        1.000000        0.00002606        0.00000176        0.00000053
     268         -1.023594        1.000000        0.00000804        0.00000007        0.00000002
     269         -1.023069        1.000000        0.00000556        0.00000004        0.00000009
     270         -1.022603        1.000000        0.00000032        0.00000009        0.00000014
     271         -1.022074        1.000000        0.00000008        0.00000041        0.00000025
     272         -1.021695        1.000000        0.00000255        0.00000047        0.00000058
     273         -1.021372        1.000000        0.00056329        0.00003138        0.00001203
     274         -1.021076        1.000000        0.00000682        0.00000019        0.00000005
     275         -1.019492        1.000000        0.00000019        0.00000005        0.00000001
     276         -1.018003        1.000000        0.00004064        0.00000145        0.00000234
     277         -1.016408        1.000000        0.00000019        0.00000027        0.00000003
     278         -1.016278        1.000000        0.00000001        0.00000282        0.00000034
     279         -1.015338        1.000000        0.00003924        0.00000232        0.00000109
     280         -1.013851        1.000000        0.00000180        0.00000038        0.00000029
     281         -1.010223        1.000000        0.00000535        0.00000056        0.00000018
     282         -1.009666        1.000000        0.01897200        0.00176601        0.00060924
     283         -1.007726        1.000000        0.00000103        0.00000016        0.00000004
     284         -1.007300        1.000000        0.00001871        0.00000251        0.00000065
     285         -1.006916        1.000000        0.00114708        0.00016211        0.00004140
     286         -0.889442        1.000000        0.00000000        0.00000000        0.00000000
     287         -0.869424        1.000000        0.00000000        0.00000000        0.00000000
     288         -0.867225        1.000000        0.00000000        0.00000000        0.00000000
     289         -0.864755        1.000000        0.00000000        0.00000000        0.00000000
     290         -0.860947        1.000000        0.00000000        0.00000000        0.00000000
     291         -0.846899        1.000000        0.00000000        0.00000000        0.00000000
     292         -0.844423        1.000000        0.00000000        0.00000000        0.00000000
     293         -0.843782        1.000000        0.00000000        0.00000000        0.00000000
     294         -0.840445        1.000000        0.00000000        0.00000000        0.00000000
     295         -0.821748        1.000000        0.00000000        0.00000000        0.00000000
     296         -0.818927        1.000000        0.00000000        0.00000000        0.00000000
     297         -0.814033        1.000000        0.00000000        0.00000000        0.00000000
     298         -0.808071        1.000000        0.00000000        0.00000000        0.00000000
     299         -0.807076        1.000000        0.00000000        0.00000000        0.00000000
     300         -0.806003        1.000000        0.00000000        0.00000000        0.00000000
     301         -0.805433        1.000000        0.00000000        0.00000000        0.00000000
     302         -0.803208        1.000000        0.00000000        0.00000000        0.00000000
     303         -0.802271        1.000000        0.00000000        0.00000000        0.00000000
     304         -0.801014        1.000000        0.00000000        0.00000000        0.00000000
     305         -0.800419        1.000000        0.00000000        0.00000000        0.00000000
     306         -0.800163        1.000000        0.00000000        0.00000000        0.00000000
     307         -0.798966        1.000000        0.00000000        0.00000000        0.00000000