# Projected DOS for list 47 of 1 atoms, at iteration step i = 0, E(Fermi) =    -0.245567 a.u.
#     MO Eigenvalue [a.u.]      Occupation                 s                 p                 d
       1         -3.122063        1.000000        0.00000000        0.00000000        0.00000000
       2         -3.121278        1.000000        0.00000000        0.00000000        0.00000000
       3         -3.121021        1.000000        0.00000000        0.00000000        0.00000000
       4         -3.120578        1.000000        0.00000000        0.00000000        0.00000000
       5         -3.120271        1.000000        0.00000000        0.00000000        0.00000000
       6         -3.119857        1.000000        0.00000000        0.00000000        0.00000000
       7         -3.119652        1.000000        0.00000000        0.00000000        0.00000000
       8         -3.119624        1.000000        0.00000000        0.00000000        0.00000000
       9         -3.119219        1.000000        0.00000000        0.00000000        0.00000000
      10         -3.119023        1.000000        0.00000000        0.00000000        0.00000000
      11         -3.118913        1.000000        0.00000000        0.00000000        0.00000000
      12         -3.118874        1.000000        0.00000000        0.00000000        0.00000000
      13         -3.118317        1.000000        0.00000000        0.00000000        0.00000000
      14         -3.118249        1.000000        0.00000000        0.00000000        0.00000000
      15         -3.117895        1.000000        0.00000000        0.00000000        0.00000000
      16         -3.117383        1.000000        0.00000000        0.00000000        0.00000000
      17         -3.117165        1.000000        0.00000000        0.00000000        0.00000000
      18         -3.116815        1.000000        0.00000000        0.00000000        0.00000000
      19         -3.116436        1.000000        0.00000000        0.00000000        0.00000000
      20         -3.116021        1.000000        0.00000000        0.00000000        0.00000000
      21         -3.115852        1.000000        0.00000000        0.00000000        0.00000000
      22         -3.115668        1.000000        0.00000000        0.00000000        0.00000000
      23         -3.115368        1.000000        0.00000000        0.00000000        0.00000000
      24         -3.115339        1.000000        0.00000000        0.00000000        0.00000000
      25         -3.115041        1.000000        0.00000000        0.00000000        0.00000000
      26         -3.114366        1.000000        0.00000000        0.00000000        0.00000000
      27         -3.113951        1.000000        0.00000000        0.00000000        0.00000000
      28         -3.113764        1.000000        0.00000000        0.00000000        0.00000000
      29         -3.112534        1.000000        0.00000000        0.00000000        0.00000000
      30         -3.111679        1.000000        0.00000000        0.00000000        0.00000000
      31         -1.784233        1.000000        0.00000000        0.00000000        0.00000000
      32         -1.782870        1.000000        0.00000000        0.00000000        0.00000000
      33         -1.782324        1.000000        0.00000000        0.00000000        0.00000000
      34         -1.782130        1.000000        0.00000000        0.00000000        0.00000000
      35         -1.781736        1.000000        0.00000000        0.00000000        0.00000000
      36         -1.781230        1.000000        0.00000000        0.00000000        0.00000000
      37         -1.780847        1.000000        0.00000000        0.00000000        0.00000000
      38         -1.780487        1.000000        0.00000000        0.00000000        0.00000000
      39         -1.780184        1.000000        0.00000000        0.00000000        0.00000000
      40         -1.779550        1.000000        0.00000000        0.00000000        0.00000000
      41         -1.779259        1.000000        0.00000000        0.00000000        0.00000000
      42         -1.778921        1.000000        0.00000000        0.00000000        0.00000000
      43         -1.778390        1.000000        0.00000000        0.00000000        0.00000000
      44         -1.778140        1.000000        0.00000000        0.00000000        0.00000000
      45         -1.777912        1.000000        0.00000000        0.00000000        0.00000000
      46         -1.777514        1.000000        0.00000000        0.00000000        0.00000000
      47         -1.777362        1.000000        0.00000000        0.00000000        0.00000000
      48         -1.776787        1.000000        0.00000000        0.00000000        0.00000000
      49         -1.776537        1.000000        0.00000000        0.00000000        0.00000000
      50         -1.776457        1.000000        0.00000000        0.00000000        0.00000000
      51         -1.776029        1.000000        0.00000000        0.00000000        0.00000000
      52         -1.774038        1.000000        0.00000000        0.00000000        0.00000000
      53         -1.773797        1.000000        0.00000000        0.00000000        0.00000000
      54         -1.773665        1.000000        0.00000000        0.00000000        0.00000000
      55         -1.772725        1.000000        0.00000000        0.00000000        0.00000000
      56         -1.772546        1.000000        0.00000000        0.00000000        0.00000000
      57         -1.772041        1.000000        0.00000000        0.00000000        0.00000000
      58         -1.771662        1.000000        0.00000000        0.00000000        0.00000000
      59         -1.771364        1.000000        0.00000000        0.00000000        0.00000000
      60         -1.770813        1.000000        0.00000000        0.00000000        0.00000000
      61         -1.770640        1.000000        0.00000000        0.00000000        0.00000000
      62         -1.770449        1.000000        0.00000000        0.00000000        0.00000000
      63         -1.770188        1.000000        0.00000000        0.00000000        0.00000000
      64         -1.770126        1.000000        0.00000000        0.00000000        0.00000000
      65         -1.769991        1.000000        0.00000000        0.00000000        0.00000000
      66         -1.769845        1.000000        0.00000000        0.00000000        0.00000000
      67         -1.769763        1.000000        0.00000000        0.00000000        0.00000000
      68         -1.769661        1.000000        0.00000000        0.00000000        0.00000000
      69         -1.769465        1.000000        0.00000000        0.00000000        0.00000000
      70         -1.769351        1.000000        0.00000000        0.00000000        0.00000000
      71         -1.769328        1.000000        0.00000000        0.00000000        0.00000000
      72         -1.769216        1.000000        0.00000000        0.00000000        0.00000000
      73         -1.769129        1.000000        0.00000000        0.00000000        0.00000000
      74         -1.769070        1.000000        0.00000000        0.00000000        0.00000000
      75         -1.768941        1.000000        0.00000000        0.00000000        0.00000000
      76         -1.768822        1.000000        0.00000000        0.00000000        0.00000000
      77         -1.768707        1.000000        0.00000000        0.00000000        0.00000000
      78         -1.768585        1.000000        0.00000000        0.00000000        0.00000000
      79         -1.768439        1.000000        0.00000000        0.00000000        0.00000000
      80         -1.768329        1.000000        0.00000000        0.00000000        0.00000000
      81         -1.768089        1.000000        0.00000000        0.00000000        0.00000000
      82         -1.767883        1.000000        0.00000000        0.00000000        0.00000000
      83         -1.767662        1.000000        0.00000000        0.00000000        0.00000000
      84         -1.767495        1.000000        0.00000000        0.00000000        0.00000000
      85         -1.767311        1.000000        0.00000000        0.00000000        0.00000000
      86         -1.767266        1.000000        0.00000000        0.00000000        0.00000000
      87         -1.767060        1.000000        0.00000000        0.00000000        0.00000000
      88         -1.767025        1.000000        0.00000000        0.00000000        0.00000000
      89         -1.766872        1.000000        0.00000000        0.00000000        0.00000000
      90         -1.766524        1.000000        0.00000000        0.00000000        0.00000000
      91         -1.766405        1.000000        0.00000000        0.00000000        0.00000000
      92         -1.766254        1.000000        0.00000000        0.00000000        0.00000000
      93         -1.766123        1.000000        0.00000000        0.00000000        0.00000000
      94         -1.765857        1.000000        0.00000000        0.00000000        0.00000000
      95         -1.765515        1.000000        0.00000000        0.00000000        0.00000000
      96         -1.765181        1.000000        0.00000000        0.00000000        0.00000000
      97         -1.765105        1.000000        0.00000000        0.00000000        0.00000000
      98         -1.764967        1.000000        0.00000000        0.00000000        0.00000000
      99         -1.764710        1.000000        0.00000000        0.00000000        0.00000000
     100         -1.764440        1.000000        0.00000000        0.00000000        0.00000000
     101         -1.764248        1.000000        0.00000000        0.00000000        0.00000000
     102         -1.763945        1.000000        0.00000000        0.00000000        0.00000000
     103         -1.763804        1.000000        0.00000000        0.00000000        0.00000000
     104         -1.763351        1.000000        0.00000000        0.00000000        0.00000000
     105         -1.763205        1.000000        0.00000000        0.00000000        0.00000000
     106         -1.763107        1.000000        0.00000000        0.00000000        0.00000000
     107         -1.762531        1.000000        0.00000000        0.00000000        0.00000000
     108         -1.762343        1.000000        0.00000000        0.00000000        0.00000000
     109         -1.761453        1.000000        0.00000000        0.00000000        0.00000000
     110         -1.760969        1.000000        0.00000000        0.00000000        0.00000000
     111         -1.760481        1.000000        0.00000000        0.00000000        0.00000000
     112         -1.760009        1.000000        0.00000000        0.00000000        0.00000000
     113         -1.759531        1.000000        0.00000000        0.00000000        0.00000000
     114         -1.759105        1.000000        0.00000000        0.00000000        0.00000000
     115         -1.758777        1.000000        0.00000000        0.00000000        0.00000000
     116         -1.757462        1.000000        0.00000000        0.00000000        0.00000000
     117         -1.756221        1.000000        0.00000000        0.00000000        0.00000000
     118         -1.755333        1.000000        0.00000000        0.00000000        0.00000000
     119         -1.754385        1.000000        0.00000000        0.00000000        0.00000000
     120         -1.752742        1.000000        0.00000000        0.00000000        0.00000000
     121         -1.131181        1.000000        0.02841555        0.01464306        0.00598678
     122         -1.128658        1.000000        0.02357014        0.01545495        0.00651483
     123         -1.128000        1.000000        0.00034638        0.00056046        0.00019659
     124         -1.126427        1.000000        0.00222873        0.00098935        0.00043733
     125         -1.120469        1.000000        0.00040218        0.00074027        0.00014801
     126         -1.119202        1.000000        0.00070120        0.00132241        0.00049787
     127         -1.117081        1.000000        0.00020948        0.00366192        0.00149193
     128         -1.116156        1.000000        0.00285051        0.00016766        0.00008133
     129         -1.115054        1.000000        0.00172560        0.01263136        0.00363004
     130         -1.111818        1.000000        0.00601741        0.00048903        0.00011148
     131         -1.111610        1.000000        0.00163669        0.00145349        0.00030328
     132         -1.110976        1.000000        0.00076846        0.00064139        0.00019957
     133         -1.109888        1.000000        0.00230898        0.00114307        0.00031839
     134         -1.108601        1.000000        0.00102193        0.00054766        0.00012573
     135         -1.108036        1.000000        0.00487423        0.00118709        0.00024917
     136         -1.107349        1.000000        0.00146679        0.00201056        0.00064744
     137         -1.106797        1.000000        0.00007103        0.00012058        0.00001157
     138         -1.106077        1.000000        0.00004228        0.00080684        0.00024085
     139         -1.104162        1.000000        0.00077631        0.00035400        0.00014896
     140         -1.102892        1.000000        0.00346951        0.00261779        0.00059953
     141         -1.102196        1.000000        0.00406308        0.00157982        0.00048686
     142         -1.101581        1.000000        0.00056879        0.00141350        0.00062684
     143         -1.101215        1.000000        0.00123573        0.00154121        0.00055445
     144         -1.099602        1.000000        0.00998313        0.00158275        0.00092491
     145         -1.098107        1.000000        0.00012117        0.00316131        0.00120338
     146         -1.097450        1.000000        0.00139760        0.00058714        0.00018261
     147         -1.097046        1.000000        0.00078829        0.00452928        0.00222314
     148         -1.095795        1.000000        0.00039863        0.00260026        0.00074095
     149         -1.095192        1.000000        0.00184231        0.00127946        0.00033894
     150         -1.093515        1.000000        0.00165829        0.00175128        0.00059478
     151         -1.093123        1.000000        0.00000865        0.00188178        0.00057502
     152         -1.092614        1.000000        0.00154296        0.00077812        0.00054102
     153         -1.091821        1.000000        0.00015863        0.00172231        0.00063491
     154         -1.090761        1.000000        0.00148529        0.00229186        0.00098375
     155         -1.090597        1.000000        0.00002311        0.00133411        0.00046381
     156         -1.089544        1.000000        0.00044854        0.00055422        0.00027527
     157         -1.088154        1.000000        0.00099051        0.00017770        0.00013653
     158         -1.086960        1.000000        0.00003403        0.00309487        0.00091631
     159         -1.086718        1.000000        0.00075235        0.00147997        0.00048441
     160         -1.085525        1.000000        0.00018461        0.00335872        0.00108022
     161         -1.084219        1.000000        0.00011261        0.00356881        0.00161879
     162         -1.082734        1.000000        0.00088299        0.00475052        0.00183204
     163         -1.082381        1.000000        0.00133023        0.00284802        0.00070983
     164         -1.080807        1.000000        0.00060648        0.00406601        0.00120556
     165         -1.080293        1.000000        0.00020703        0.00589735        0.00196348
     166         -1.079453        1.000000        0.00006766        0.00277393        0.00090682
     167         -1.078246        1.000000        0.00021424        0.00211268        0.00084907
     168         -1.077774        1.000000        0.00003474        0.00382798        0.00165089
     169         -1.077143        1.000000        0.00001906        0.00193951        0.00063255
     170         -1.076426        1.000000        0.00012898        0.00812545        0.00356069
     171         -1.076145        1.000000        0.00054519        0.00874681        0.00283907
     172         -1.074526        1.000000        0.00160225        0.00446477        0.00166417
     173         -1.074368        1.000000        0.00038198        0.00082952        0.00032788
     174         -1.073652        1.000000        0.00019828        0.00107351        0.00042178
     175         -1.072808        1.000000        0.00056195        0.00708093        0.00237633
     176         -1.072152        1.000000        0.00125460        0.00558339        0.00165184
     177         -1.071192        1.000000        0.00000472        0.00225652        0.00088273
     178         -1.070444        1.000000        0.00038155        0.00122998        0.00057507
     179         -1.070141        1.000000        0.00045903        0.01189582        0.00483427
     180         -1.069416        1.000000        0.00039935        0.00775437        0.00332011
     181         -1.069179        1.000000        0.00029325        0.00043608        0.00023688
     182         -1.067610        1.000000        0.00005223        0.00217364        0.00092038
     183         -1.066240        1.000000        0.00005832        0.00231702        0.00098848
     184         -1.065124        1.000000        0.00036579        0.00289458        0.00114870
     185         -1.064565        1.000000        0.00040833        0.00262914        0.00080809
     186         -1.063575        1.000000        0.00040475        0.00207983        0.00068919
     187         -1.062901        1.000000        0.00008600        0.00127139        0.00049999
     188         -1.062274        1.000000        0.00093738        0.00224842        0.00086380
     189         -1.061481        1.000000        0.00048037        0.00226154        0.00085314
     190         -1.061312        1.000000        0.00035425        0.00065168        0.00025639
     191         -1.060592        1.000000        0.00075950        0.00418316        0.00167199
     192         -1.059297        1.000000        0.00032179        0.00172354        0.00065375
     193         -1.058643        1.000000        0.00339608        0.00922344        0.00298396
     194         -1.058262        1.000000        0.00008372        0.00463878        0.00205635
     195         -1.057127        1.000000        0.00039928        0.00545408        0.00189951
     196         -1.056224        1.000000        0.00002917        0.00169435        0.00075277
     197         -1.056050        1.000000        0.00005652        0.00435880        0.00165969
     198         -1.054881        1.000000        0.00062993        0.00197544        0.00068346
     199         -1.054669        1.000000        0.00005900        0.00595122        0.00200499
     200         -1.053605        1.000000        0.00032472        0.00191350        0.00081086
     201         -1.053457        1.000000        0.00000012        0.00100063        0.00048550
     202         -1.052589        1.000000        0.00001322        0.00075669        0.00033409
     203         -1.052089        1.000000        0.00003215        0.00507257        0.00230041
     204         -1.051299        1.000000        0.00014165        0.00403257        0.00197549
     205         -1.050676        1.000000        0.00049286        0.00219281        0.00092991
     206         -1.050307        1.000000        0.00062721        0.00118448        0.00031652
     207         -1.049921        1.000000        0.00000247        0.00071478        0.00030338
     208         -1.049485        1.000000        0.00003657        0.00082095        0.00039947
     209         -1.049126        1.000000        0.00123056        0.00484444        0.00155975
     210         -1.048445        1.000000        0.00063263        0.00237734        0.00090639
     211         -1.048201        1.000000        0.00012876        0.00035177        0.00016175
     212         -1.047911        1.000000        0.00023888        0.00107197        0.00048779
     213         -1.047620        1.000000        0.00032162        0.00071616        0.00023372
     214         -1.046931        1.000000        0.00013291        0.00069032        0.00029268
     215         -1.046733        1.000000        0.00043975        0.00296900        0.00145613
     216         -1.046634        1.000000        0.00023227        0.00208527        0.00078762
     217         -1.045930        1.000000        0.00065221        0.00444715        0.00205478
     218         -1.045069        1.000000        0.00027737        0.00107145        0.00039651
     219         -1.044350        1.000000        0.00026157        0.00381179        0.00192459
     220         -1.043623        1.000000        0.00001768        0.00014189        0.00002217
     221         -1.043421        1.000000        0.00000511        0.00004783        0.00003605
     222         -1.042778        1.000000        0.00001309        0.00259898        0.00097527
     223         -1.042701        1.000000        0.00000860        0.00119575        0.00055872
     224         -1.042424        1.000000        0.00004050        0.00552831        0.00246227
     225         -1.041682        1.000000        0.00010503        0.00712240        0.00302488
     226         -1.041498        1.000000        0.00001596        0.00178310        0.00081918
     227         -1.040837        1.000000        0.00002668        0.00163634        0.00069259
     228         -1.040496        1.000000        0.00005092        0.00205803        0.00086413
     229         -1.040151        1.000000        0.00000360        0.00288375        0.00138225
     230         -1.039686        1.000000        0.00000790        0.00179383        0.00087061
     231         -1.038961        1.000000        0.00015978        0.00781954        0.00325936
     232         -1.038553        1.000000        0.00002666        0.00026095        0.00012909
     233         -1.038476        1.000000        0.00002943        0.00116409        0.00046675
     234         -1.038152        1.000000        0.00052666        0.00692285        0.00276564
     235         -1.038041        1.000000        0.00010006        0.00736967        0.00318752
     236         -1.036855        1.000000        0.00010259        0.00020393        0.00008255
     237         -1.036488        1.000000        0.00030843        0.01318077        0.00561109
     238         -1.036186        1.000000        0.00014663        0.00108970        0.00043331
     239         -1.036068        1.000000        0.00002598        0.00018347        0.00006497
     240         -1.035757        1.000000        0.00010803        0.00127960        0.00052457
     241         -1.035291        1.000000        0.00003367        0.00092229        0.00040275
     242         -1.035048        1.000000        0.00000705        0.00172521        0.00075476
     243         -1.035000        1.000000        0.00004847        0.00068250        0.00031345
     244         -1.034454        1.000000        0.00004114        0.00069450        0.00028289
     245         -1.034219        1.000000        0.00006850        0.00125296        0.00047602
     246         -1.033874        1.000000        0.00024345        0.00326326        0.00123766
     247         -1.033507        1.000000        0.00027801        0.00317220        0.00121447
     248         -1.033219        1.000000        0.00000781        0.00062904        0.00028684
     249         -1.033056        1.000000        0.00055968        0.00969256        0.00403718
     250         -1.032307        1.000000        0.00001069        0.00095694        0.00038149
     251         -1.031324        1.000000        0.00002167        0.00147524        0.00063362
     252         -1.031144        1.000000        0.00003635        0.00645198        0.00298944
     253         -1.030643        1.000000        0.00007316        0.00560007        0.00264031
     254         -1.030284        1.000000        0.00000072        0.00004535        0.00003545
     255         -1.030062        1.000000        0.00005923        0.00108861        0.00041408
     256         -1.029818        1.000000        0.00000316        0.00005220        0.00003216
     257         -1.028552        1.000000        0.00001434        0.02872688        0.01399825
     258         -1.027578        1.000000        0.00001761        0.00139874        0.00065588
     259         -1.027121        1.000000        0.00001425        0.00011053        0.00004743
     260         -1.026880        1.000000        0.00015226        0.00217072        0.00084581
     261         -1.026226        1.000000        0.00000029        0.00331894        0.00162860
     262         -1.025765        1.000000        0.00005411        0.01827314        0.00886067
     263         -1.025299        1.000000        0.00003251        0.00225288        0.00108038
     264         -1.025158        1.000000        0.00001371        0.00233222        0.00117704
     265         -1.025007        1.000000        0.00000979        0.00070815        0.00033398
     266         -1.024422        1.000000        0.00000536        0.00158281        0.00082056
     267         -1.023793        1.000000        0.00002344        0.00207886        0.00097441
     268         -1.023594        1.000000        0.00000008        0.00005110        0.00002498
     269         -1.023069        1.000000        0.00000821        0.00082356        0.00042621
     270         -1.022603        1.000000        0.00000389        0.00062832        0.00028750
     271         -1.022074        1.000000        0.00000035        0.00000651        0.00000249
     272         -1.021695        1.000000        0.00000064        0.00005035        0.00002427
     273         -1.021372        1.000000        0.00002451        0.00147583        0.00069032
     274         -1.021076        1.000000        0.00000031        0.00001931        0.00001077
     275         -1.019492        1.000000        0.00000165        0.00008258        0.00004428
     276         -1.018003        1.000000        0.00000274        0.00001296        0.00000545
     277         -1.016408        1.000000        0.00000015        0.00000679        0.00000390
     278         -1.016278        1.000000        0.00000922        0.00013711        0.00008471
     279         -1.015338        1.000000        0.00020476        0.00400033        0.00253454
     280         -1.013851        1.000000        0.00003037        0.00207108        0.00103331
     281         -1.010223        1.000000        0.00000040        0.00000584        0.00000297
     282         -1.009666        1.000000        0.00008450        0.00282571        0.00144952
     283         -1.007726        1.000000        0.00000006        0.00000156        0.00000075
     284         -1.007300        1.000000        0.00000010        0.00000610        0.00000241
     285         -1.006916        1.000000        0.00000340        0.00010539        0.00005611
     286         -0.889442        1.000000        0.00000000        0.00000000        0.00000000
     287         -0.869424        1.000000        0.00000000        0.00000000        0.00000000
     288         -0.867225        1.000000        0.00000000        0.00000000        0.00000000
     289         -0.864755        1.000000        0.00000000        0.00000000        0.00000000
     290         -0.860947        1.000000        0.00000000        0.00000000        0.00000000
     291         -0.846899        1.000000        0.00000000        0.00000000        0.00000000
     292         -0.844423        1.000000        0.00000000        0.00000000        0.00000000
     293         -0.843782        1.000000        0.00000000        0.00000000        0.00000000
     294         -0.840445        1.000000        0.00000000        0.00000000        0.00000000
     295         -0.821748        1.000000        0.00000000        0.00000000        0.00000000
     296         -0.818927        1.000000        0.00000000        0.00000000        0.00000000
     297         -0.814033        1.000000        0.00000000        0.00000000        0.00000000
     298         -0.808071        1.000000        0.00000000        0.00000000        0.00000000
     299         -0.807076        1.000000        0.00000000        0.00000000        0.00000000
     300         -0.806003        1.000000        0.00000000        0.00000000        0.00000000
     301         -0.805433        1.000000        0.00000000        0.00000000        0.00000000
     302         -0.803208        1.000000        0.00000000        0.00000000        0.00000000
     303         -0.802271        1.000000        0.00000000        0.00000000        0.00000000
     304         -0.801014        1.000000        0.00000000        0.00000000        0.00000000
     305         -0.800419        1.000000        0.00000000        0.00000000        0.00000000
     306         -0.800163        1.000000        0.00000000        0.00000000        0.00000000
     307         -0.798966        1.000000        0.00000000        0.00000000        0.00000000