# Projected DOS for list 129 of 1 atoms, at iteration step i = 0, E(Fermi) =    -0.245567 a.u.
#     MO Eigenvalue [a.u.]      Occupation                 s                 p                 d
       1         -3.122063        1.000000        0.00000000        0.00000000        0.00000000
       2         -3.121278        1.000000        0.00000000        0.00000000        0.00000000
       3         -3.121021        1.000000        0.00000000        0.00000000        0.00000000
       4         -3.120578        1.000000        0.00000000        0.00000000        0.00000000
       5         -3.120271        1.000000        0.00000000        0.00000000        0.00000000
       6         -3.119857        1.000000        0.00000000        0.00000000        0.00000000
       7         -3.119652        1.000000        0.00000000        0.00000000        0.00000000
       8         -3.119624        1.000000        0.00000000        0.00000000        0.00000000
       9         -3.119219        1.000000        0.00000000        0.00000000        0.00000000
      10         -3.119023        1.000000        0.00000000        0.00000000        0.00000000
      11         -3.118913        1.000000        0.00000000        0.00000000        0.00000000
      12         -3.118874        1.000000        0.00000000        0.00000000        0.00000000
      13         -3.118317        1.000000        0.00000000        0.00000000        0.00000000
      14         -3.118249        1.000000        0.00000000        0.00000000        0.00000000
      15         -3.117895        1.000000        0.00000000        0.00000000        0.00000000
      16         -3.117383        1.000000        0.00000000        0.00000000        0.00000000
      17         -3.117165        1.000000        0.00000000        0.00000000        0.00000000
      18         -3.116815        1.000000        0.00000000        0.00000000        0.00000000
      19         -3.116436        1.000000        0.00000000        0.00000000        0.00000000
      20         -3.116021        1.000000        0.00000000        0.00000000        0.00000000
      21         -3.115852        1.000000        0.00000000        0.00000000        0.00000000
      22         -3.115668        1.000000        0.00000000        0.00000000        0.00000000
      23         -3.115368        1.000000        0.00000000        0.00000000        0.00000000
      24         -3.115339        1.000000        0.00000000        0.00000000        0.00000000
      25         -3.115041        1.000000        0.00000000        0.00000000        0.00000000
      26         -3.114366        1.000000        0.00000000        0.00000000        0.00000000
      27         -3.113951        1.000000        0.00000000        0.00000000        0.00000000
      28         -3.113764        1.000000        0.00000000        0.00000000        0.00000000
      29         -3.112534        1.000000        0.00000000        0.00000000        0.00000000
      30         -3.111679        1.000000        0.00000000        0.00000000        0.00000000
      31         -1.784233        1.000000        0.00000000        0.00000000        0.00000000
      32         -1.782870        1.000000        0.00000000        0.00000000        0.00000000
      33         -1.782324        1.000000        0.00000000        0.00000000        0.00000000
      34         -1.782130        1.000000        0.00000000        0.00000000        0.00000000
      35         -1.781736        1.000000        0.00000000        0.00000000        0.00000000
      36         -1.781230        1.000000        0.00000000        0.00000000        0.00000000
      37         -1.780847        1.000000        0.00000000        0.00000000        0.00000000
      38         -1.780487        1.000000        0.00000000        0.00000000        0.00000000
      39         -1.780184        1.000000        0.00000000        0.00000000        0.00000000
      40         -1.779550        1.000000        0.00000000        0.00000000        0.00000000
      41         -1.779259        1.000000        0.00000000        0.00000000        0.00000000
      42         -1.778921        1.000000        0.00000000        0.00000000        0.00000000
      43         -1.778390        1.000000        0.00000000        0.00000000        0.00000000
      44         -1.778140        1.000000        0.00000000        0.00000000        0.00000000
      45         -1.777912        1.000000        0.00000000        0.00000000        0.00000000
      46         -1.777514        1.000000        0.00000000        0.00000000        0.00000000
      47         -1.777362        1.000000        0.00000000        0.00000000        0.00000000
      48         -1.776787        1.000000        0.00000000        0.00000000        0.00000000
      49         -1.776537        1.000000        0.00000000        0.00000000        0.00000000
      50         -1.776457        1.000000        0.00000000        0.00000000        0.00000000
      51         -1.776029        1.000000        0.00000000        0.00000000        0.00000000
      52         -1.774038        1.000000        0.00000000        0.00000000        0.00000000
      53         -1.773797        1.000000        0.00000000        0.00000000        0.00000000
      54         -1.773665        1.000000        0.00000000        0.00000000        0.00000000
      55         -1.772725        1.000000        0.00000000        0.00000000        0.00000000
      56         -1.772546        1.000000        0.00000000        0.00000000        0.00000000
      57         -1.772041        1.000000        0.00000000        0.00000000        0.00000000
      58         -1.771662        1.000000        0.00000000        0.00000000        0.00000000
      59         -1.771364        1.000000        0.00000000        0.00000000        0.00000000
      60         -1.770813        1.000000        0.00000000        0.00000000        0.00000000
      61         -1.770640        1.000000        0.00000000        0.00000000        0.00000000
      62         -1.770449        1.000000        0.00000000        0.00000000        0.00000000
      63         -1.770188        1.000000        0.00000000        0.00000000        0.00000000
      64         -1.770126        1.000000        0.00000000        0.00000000        0.00000000
      65         -1.769991        1.000000        0.00000000        0.00000000        0.00000000
      66         -1.769845        1.000000        0.00000000        0.00000000        0.00000000
      67         -1.769763        1.000000        0.00000000        0.00000000        0.00000000
      68         -1.769661        1.000000        0.00000000        0.00000000        0.00000000
      69         -1.769465        1.000000        0.00000000        0.00000000        0.00000000
      70         -1.769351        1.000000        0.00000000        0.00000000        0.00000000
      71         -1.769328        1.000000        0.00000000        0.00000000        0.00000000
      72         -1.769216        1.000000        0.00000000        0.00000000        0.00000000
      73         -1.769129        1.000000        0.00000000        0.00000000        0.00000000
      74         -1.769070        1.000000        0.00000000        0.00000000        0.00000000
      75         -1.768941        1.000000        0.00000000        0.00000000        0.00000000
      76         -1.768822        1.000000        0.00000000        0.00000000        0.00000000
      77         -1.768707        1.000000        0.00000000        0.00000000        0.00000000
      78         -1.768585        1.000000        0.00000000        0.00000000        0.00000000
      79         -1.768439        1.000000        0.00000000        0.00000000        0.00000000
      80         -1.768329        1.000000        0.00000000        0.00000000        0.00000000
      81         -1.768089        1.000000        0.00000000        0.00000000        0.00000000
      82         -1.767883        1.000000        0.00000000        0.00000000        0.00000000
      83         -1.767662        1.000000        0.00000000        0.00000000        0.00000000
      84         -1.767495        1.000000        0.00000000        0.00000000        0.00000000
      85         -1.767311        1.000000        0.00000000        0.00000000        0.00000000
      86         -1.767266        1.000000        0.00000000        0.00000000        0.00000000
      87         -1.767060        1.000000        0.00000000        0.00000000        0.00000000
      88         -1.767025        1.000000        0.00000000        0.00000000        0.00000000
      89         -1.766872        1.000000        0.00000000        0.00000000        0.00000000
      90         -1.766524        1.000000        0.00000000        0.00000000        0.00000000
      91         -1.766405        1.000000        0.00000000        0.00000000        0.00000000
      92         -1.766254        1.000000        0.00000000        0.00000000        0.00000000
      93         -1.766123        1.000000        0.00000000        0.00000000        0.00000000
      94         -1.765857        1.000000        0.00000000        0.00000000        0.00000000
      95         -1.765515        1.000000        0.00000000        0.00000000        0.00000000
      96         -1.765181        1.000000        0.00000000        0.00000000        0.00000000
      97         -1.765105        1.000000        0.00000000        0.00000000        0.00000000
      98         -1.764967        1.000000        0.00000000        0.00000000        0.00000000
      99         -1.764710        1.000000        0.00000000        0.00000000        0.00000000
     100         -1.764440        1.000000        0.00000000        0.00000000        0.00000000
     101         -1.764248        1.000000        0.00000000        0.00000000        0.00000000
     102         -1.763945        1.000000        0.00000000        0.00000000        0.00000000
     103         -1.763804        1.000000        0.00000000        0.00000000        0.00000000
     104         -1.763351        1.000000        0.00000000        0.00000000        0.00000000
     105         -1.763205        1.000000        0.00000000        0.00000000        0.00000000
     106         -1.763107        1.000000        0.00000000        0.00000000        0.00000000
     107         -1.762531        1.000000        0.00000000        0.00000000        0.00000000
     108         -1.762343        1.000000        0.00000000        0.00000000        0.00000000
     109         -1.761453        1.000000        0.00000000        0.00000000        0.00000000
     110         -1.760969        1.000000        0.00000000        0.00000000        0.00000000
     111         -1.760481        1.000000        0.00000000        0.00000000        0.00000000
     112         -1.760009        1.000000        0.00000000        0.00000000        0.00000000
     113         -1.759531        1.000000        0.00000000        0.00000000        0.00000000
     114         -1.759105        1.000000        0.00000000        0.00000000        0.00000000
     115         -1.758777        1.000000        0.00000000        0.00000000        0.00000000
     116         -1.757462        1.000000        0.00000000        0.00000000        0.00000000
     117         -1.756221        1.000000        0.00000000        0.00000000        0.00000000
     118         -1.755333        1.000000        0.00000000        0.00000000        0.00000000
     119         -1.754385        1.000000        0.00000000        0.00000000        0.00000000
     120         -1.752742        1.000000        0.00000000        0.00000000        0.00000000
     121         -1.131181        1.000000        0.00319067        0.00117002        0.00038541
     122         -1.128658        1.000000        0.00440752        0.00252668        0.00085425
     123         -1.128000        1.000000        0.01309821        0.00860043        0.00284240
     124         -1.126427        1.000000        0.00213632        0.00246312        0.00080820
     125         -1.120469        1.000000        0.00043081        0.00132345        0.00023936
     126         -1.119202        1.000000        0.00053715        0.00443619        0.00126101
     127         -1.117081        1.000000        0.00574401        0.00237843        0.00083347
     128         -1.116156        1.000000        0.00191335        0.00017321        0.00005461
     129         -1.115054        1.000000        0.00032530        0.00023139        0.00008495
     130         -1.111818        1.000000        0.00988406        0.00072654        0.00040716
     131         -1.111610        1.000000        0.00000200        0.00032916        0.00007717
     132         -1.110976        1.000000        0.00145501        0.00194166        0.00057673
     133         -1.109888        1.000000        0.00001464        0.00181293        0.00052616
     134         -1.108601        1.000000        0.02190207        0.00127223        0.00022629
     135         -1.108036        1.000000        0.00216805        0.00260537        0.00099669
     136         -1.107349        1.000000        0.00040705        0.00052454        0.00017816
     137         -1.106797        1.000000        0.00576871        0.00031376        0.00007429
     138         -1.106077        1.000000        0.00042312        0.00099121        0.00032930
     139         -1.104162        1.000000        0.00068451        0.00017050        0.00006546
     140         -1.102892        1.000000        0.00014096        0.00132648        0.00029356
     141         -1.102196        1.000000        0.00654302        0.00254580        0.00079988
     142         -1.101581        1.000000        0.00088900        0.00101806        0.00039528
     143         -1.101215        1.000000        0.00007207        0.00150316        0.00037705
     144         -1.099602        1.000000        0.00033419        0.00217577        0.00063717
     145         -1.098107        1.000000        0.00000543        0.00197026        0.00062316
     146         -1.097450        1.000000        0.00122745        0.00035774        0.00006855
     147         -1.097046        1.000000        0.00989341        0.00323212        0.00130040
     148         -1.095795        1.000000        0.00028205        0.00389667        0.00133480
     149         -1.095192        1.000000        0.00788491        0.00287165        0.00100468
     150         -1.093515        1.000000        0.00159355        0.00266458        0.00074137
     151         -1.093123        1.000000        0.00018695        0.00197302        0.00065843
     152         -1.092614        1.000000        0.00027019        0.00624743        0.00220292
     153         -1.091821        1.000000        0.00008651        0.00463766        0.00147649
     154         -1.090761        1.000000        0.00004211        0.00036759        0.00009146
     155         -1.090597        1.000000        0.00017409        0.00015499        0.00007311
     156         -1.089544        1.000000        0.00080273        0.00029071        0.00006122
     157         -1.088154        1.000000        0.00009066        0.00023670        0.00007972
     158         -1.086960        1.000000        0.00520665        0.00152567        0.00050540
     159         -1.086718        1.000000        0.00020039        0.00365177        0.00104649
     160         -1.085525        1.000000        0.00080023        0.00123889        0.00031924
     161         -1.084219        1.000000        0.00003699        0.00762134        0.00268573
     162         -1.082734        1.000000        0.00196107        0.00239694        0.00081102
     163         -1.082381        1.000000        0.00017240        0.00053607        0.00017568
     164         -1.080807        1.000000        0.00001379        0.00245884        0.00078513
     165         -1.080293        1.000000        0.00002078        0.00379536        0.00131458
     166         -1.079453        1.000000        0.00057286        0.00011489        0.00007736
     167         -1.078246        1.000000        0.00100935        0.00209983        0.00091609
     168         -1.077774        1.000000        0.00001815        0.00037282        0.00015990
     169         -1.077143        1.000000        0.00015124        0.00019495        0.00005390
     170         -1.076426        1.000000        0.00455328        0.01871947        0.00648449
     171         -1.076145        1.000000        0.00220502        0.00512720        0.00184092
     172         -1.074526        1.000000        0.00036762        0.00812459        0.00276386
     173         -1.074368        1.000000        0.00033292        0.00264444        0.00090647
     174         -1.073652        1.000000        0.00018251        0.00449060        0.00166777
     175         -1.072808        1.000000        0.00015606        0.00541825        0.00192631
     176         -1.072152        1.000000        0.00068228        0.01358701        0.00534363
     177         -1.071192        1.000000        0.00030747        0.00677633        0.00258626
     178         -1.070444        1.000000        0.00033523        0.00855623        0.00349687
     179         -1.070141        1.000000        0.00007015        0.00325405        0.00126502
     180         -1.069416        1.000000        0.00000299        0.00162040        0.00052681
     181         -1.069179        1.000000        0.00000823        0.00161916        0.00059926
     182         -1.067610        1.000000        0.00002535        0.00175578        0.00073819
     183         -1.066240        1.000000        0.00004078        0.00349421        0.00140149
     184         -1.065124        1.000000        0.00006956        0.00029975        0.00008670
     185         -1.064565        1.000000        0.00002721        0.00320450        0.00118637
     186         -1.063575        1.000000        0.00006465        0.00186361        0.00074163
     187         -1.062901        1.000000        0.00015610        0.00178188        0.00066352
     188         -1.062274        1.000000        0.00015489        0.00125972        0.00048962
     189         -1.061481        1.000000        0.00025454        0.00245499        0.00090373
     190         -1.061312        1.000000        0.00012641        0.00099986        0.00044416
     191         -1.060592        1.000000        0.00031055        0.00246688        0.00104466
     192         -1.059297        1.000000        0.00001552        0.00473488        0.00219672
     193         -1.058643        1.000000        0.00002344        0.00019083        0.00007776
     194         -1.058262        1.000000        0.00003173        0.00055808        0.00024021
     195         -1.057127        1.000000        0.00027698        0.00170164        0.00071071
     196         -1.056224        1.000000        0.00007702        0.00103275        0.00044650
     197         -1.056050        1.000000        0.00004835        0.00037506        0.00016264
     198         -1.054881        1.000000        0.00024041        0.00100765        0.00040103
     199         -1.054669        1.000000        0.00024044        0.00195730        0.00071437
     200         -1.053605        1.000000        0.00008873        0.00157339        0.00066358
     201         -1.053457        1.000000        0.00006938        0.00157028        0.00062506
     202         -1.052589        1.000000        0.00012365        0.00125307        0.00059771
     203         -1.052089        1.000000        0.00021217        0.00236117        0.00092683
     204         -1.051299        1.000000        0.00087596        0.00336027        0.00139682
     205         -1.050676        1.000000        0.00151390        0.00810326        0.00364366
     206         -1.050307        1.000000        0.00021015        0.00045783        0.00017515
     207         -1.049921        1.000000        0.00108569        0.00629638        0.00263045
     208         -1.049485        1.000000        0.00047800        0.00158178        0.00075569
     209         -1.049126        1.000000        0.00029113        0.00448909        0.00209780
     210         -1.048445        1.000000        0.00058616        0.00249412        0.00103929
     211         -1.048201        1.000000        0.00055120        0.00423294        0.00166294
     212         -1.047911        1.000000        0.00203539        0.01009306        0.00413179
     213         -1.047620        1.000000        0.00006824        0.00080048        0.00038856
     214         -1.046931        1.000000        0.00020165        0.00265399        0.00101899
     215         -1.046733        1.000000        0.00035855        0.00337041        0.00147379
     216         -1.046634        1.000000        0.00035231        0.00222177        0.00087992
     217         -1.045930        1.000000        0.00003820        0.00062725        0.00028389
     218         -1.045069        1.000000        0.00002279        0.00079963        0.00037251
     219         -1.044350        1.000000        0.00002762        0.00002488        0.00001390
     220         -1.043623        1.000000        0.00000341        0.00014237        0.00005359
     221         -1.043421        1.000000        0.00000327        0.00018006        0.00006639
     222         -1.042778        1.000000        0.00002961        0.00207501        0.00117960
     223         -1.042701        1.000000        0.00010421        0.00178790        0.00070406
     224         -1.042424        1.000000        0.00000407        0.00159056        0.00075418
     225         -1.041682        1.000000        0.00000366        0.00015740        0.00008001
     226         -1.041498        1.000000        0.00000889        0.00166489        0.00068486
     227         -1.040837        1.000000        0.00000024        0.00039224        0.00015511
     228         -1.040496        1.000000        0.00012451        0.01111092        0.00440986
     229         -1.040151        1.000000        0.00021948        0.01301478        0.00508212
     230         -1.039686        1.000000        0.00060500        0.02608693        0.01015992
     231         -1.038961        1.000000        0.00002835        0.00049576        0.00020685
     232         -1.038553        1.000000        0.00058805        0.01964836        0.00787040
     233         -1.038476        1.000000        0.00002149        0.00097163        0.00038219
     234         -1.038152        1.000000        0.00002656        0.00090723        0.00034763
     235         -1.038041        1.000000        0.00007329        0.00118638        0.00049884
     236         -1.036855        1.000000        0.00001606        0.00005358        0.00003824
     237         -1.036488        1.000000        0.00000451        0.00042382        0.00020428
     238         -1.036186        1.000000        0.00000741        0.01324709        0.00591815
     239         -1.036068        1.000000        0.00001097        0.00682494        0.00301038
     240         -1.035757        1.000000        0.00000981        0.00209581        0.00093895
     241         -1.035291        1.000000        0.00001246        0.00346392        0.00145112
     242         -1.035048        1.000000        0.00000060        0.00432407        0.00201768
     243         -1.035000        1.000000        0.00002790        0.00371364        0.00182191
     244         -1.034454        1.000000        0.00004595        0.00157509        0.00074136
     245         -1.034219        1.000000        0.00000342        0.00045329        0.00020478
     246         -1.033874        1.000000        0.00001777        0.00024449        0.00015149
     247         -1.033507        1.000000        0.00034367        0.00560067        0.00219269
     248         -1.033219        1.000000        0.00002508        0.00020783        0.00007923
     249         -1.033056        1.000000        0.00006664        0.00219595        0.00091698
     250         -1.032307        1.000000        0.00000251        0.00122021        0.00053791
     251         -1.031324        1.000000        0.00004997        0.00195239        0.00092044
     252         -1.031144        1.000000        0.00015842        0.00723294        0.00336720
     253         -1.030643        1.000000        0.00000458        0.00178137        0.00081257
     254         -1.030284        1.000000        0.00000396        0.00605633        0.00279913
     255         -1.030062        1.000000        0.00000067        0.00036944        0.00017515
     256         -1.029818        1.000000        0.00000012        0.00017288        0.00007972
     257         -1.028552        1.000000        0.00000129        0.00900101        0.00417263
     258         -1.027578        1.000000        0.00000562        0.00042846        0.00018395
     259         -1.027121        1.000000        0.00000573        0.00071836        0.00031628
     260         -1.026880        1.000000        0.00002264        0.00378381        0.00173409
     261         -1.026226        1.000000        0.00016118        0.02003565        0.00925053
     262         -1.025765        1.000000        0.00018045        0.00962134        0.00456778
     263         -1.025299        1.000000        0.00000361        0.00008207        0.00003643
     264         -1.025158        1.000000        0.00001935        0.00070043        0.00028828
     265         -1.025007        1.000000        0.00000035        0.00009214        0.00004162
     266         -1.024422        1.000000        0.00000007        0.00009390        0.00004678
     267         -1.023793        1.000000        0.00002522        0.00188465        0.00074418
     268         -1.023594        1.000000        0.00000107        0.00002259        0.00000902
     269         -1.023069        1.000000        0.00000514        0.00031566        0.00012562
     270         -1.022603        1.000000        0.00000239        0.00020664        0.00009142
     271         -1.022074        1.000000        0.00000186        0.00011861        0.00006117
     272         -1.021695        1.000000        0.00000007        0.00008184        0.00003204
     273         -1.021372        1.000000        0.00003173        0.00019353        0.00011419
     274         -1.021076        1.000000        0.00000009        0.00000062        0.00000012
     275         -1.019492        1.000000        0.00000736        0.00029210        0.00013257
     276         -1.018003        1.000000        0.00015122        0.00527036        0.00244942
     277         -1.016408        1.000000        0.00002365        0.00074872        0.00034742
     278         -1.016278        1.000000        0.00021215        0.00680659        0.00315003
     279         -1.015338        1.000000        0.00000426        0.00006320        0.00003072
     280         -1.013851        1.000000        0.00000275        0.00002988        0.00001849
     281         -1.010223        1.000000        0.00000042        0.00000724        0.00000286
     282         -1.009666        1.000000        0.00000250        0.00002312        0.00001299
     283         -1.007726        1.000000        0.00000050        0.00000797        0.00000372
     284         -1.007300        1.000000        0.00000178        0.00001798        0.00000852
     285         -1.006916        1.000000        0.00000743        0.00013937        0.00006910
     286         -0.889442        1.000000        0.00000000        0.00000000        0.00000000
     287         -0.869424        1.000000        0.00000000        0.00000000        0.00000000
     288         -0.867225        1.000000        0.00000000        0.00000000        0.00000000
     289         -0.864755        1.000000        0.00000000        0.00000000        0.00000000
     290         -0.860947        1.000000        0.00000000        0.00000000        0.00000000
     291         -0.846899        1.000000        0.00000000        0.00000000        0.00000000
     292         -0.844423        1.000000        0.00000000        0.00000000        0.00000000
     293         -0.843782        1.000000        0.00000000        0.00000000        0.00000000
     294         -0.840445        1.000000        0.00000000        0.00000000        0.00000000
     295         -0.821748        1.000000        0.00000000        0.00000000        0.00000000
     296         -0.818927        1.000000        0.00000000        0.00000000        0.00000000
     297         -0.814033        1.000000        0.00000000        0.00000000        0.00000000
     298         -0.808071        1.000000        0.00000000        0.00000000        0.00000000
     299         -0.807076        1.000000        0.00000000        0.00000000        0.00000000
     300         -0.806003        1.000000        0.00000000        0.00000000        0.00000000
     301         -0.805433        1.000000        0.00000000        0.00000000        0.00000000
     302         -0.803208        1.000000        0.00000000        0.00000000        0.00000000
     303         -0.802271        1.000000        0.00000000        0.00000000        0.00000000
     304         -0.801014        1.000000        0.00000000        0.00000000        0.00000000
     305         -0.800419        1.000000        0.00000000        0.00000000        0.00000000
     306         -0.800163        1.000000        0.00000000        0.00000000        0.00000000
     307         -0.798966        1.000000        0.00000000        0.00000000        0.00000000