# Projected DOS for atomic kind Ot at iteration step i = 0, E(Fermi) =    -0.245567 a.u.
#     MO Eigenvalue [a.u.]      Occupation                 s                 p                 d
       1         -3.122063        1.000000        0.00000069        0.00000108        0.00000038
       2         -3.121278        1.000000        0.00000048        0.00000190        0.00000076
       3         -3.121021        1.000000        0.00000036        0.00000050        0.00000024
       4         -3.120578        1.000000        0.00000053        0.00000292        0.00000062
       5         -3.120271        1.000000        0.00000035        0.00000131        0.00000034
       6         -3.119857        1.000000        0.00000044        0.00000140        0.00000036
       7         -3.119652        1.000000        0.00000040        0.00000072        0.00000038
       8         -3.119624        1.000000        0.00000023        0.00000057        0.00000017
       9         -3.119219        1.000000        0.00000014        0.00000080        0.00000014
      10         -3.119023        1.000000        0.00000019        0.00000072        0.00000020
      11         -3.118913        1.000000        0.00000020        0.00000051        0.00000016
      12         -3.118874        1.000000        0.00000018        0.00000048        0.00000009
      13         -3.118317        1.000000        0.00000036        0.00000081        0.00000019
      14         -3.118249        1.000000        0.00000035        0.00000247        0.00000046
      15         -3.117895        1.000000        0.00000023        0.00000103        0.00000043
      16         -3.117383        1.000000        0.00000063        0.00000472        0.00000072
      17         -3.117165        1.000000        0.00000013        0.00000062        0.00000015
      18         -3.116815        1.000000        0.00000039        0.00000094        0.00000038
      19         -3.116436        1.000000        0.00000025        0.00000131        0.00000020
      20         -3.116021        1.000000        0.00000035        0.00000160        0.00000028
      21         -3.115852        1.000000        0.00000038        0.00000276        0.00000039
      22         -3.115668        1.000000        0.00000034        0.00000144        0.00000031
      23         -3.115368        1.000000        0.00000020        0.00000160        0.00000024
      24         -3.115339        1.000000        0.00000024        0.00000125        0.00000034
      25         -3.115041        1.000000        0.00000023        0.00000146        0.00000031
      26         -3.114366        1.000000        0.00000012        0.00000051        0.00000020
      27         -3.113951        1.000000        0.00000020        0.00000059        0.00000018
      28         -3.113764        1.000000        0.00000009        0.00000017        0.00000008
      29         -3.112534        1.000000        0.00000008        0.00000023        0.00000009
      30         -3.111679        1.000000        0.00000006        0.00000034        0.00000015
      31         -1.784233        1.000000        0.00000002        0.00000017        0.00000004
      32         -1.782870        1.000000        0.00000003        0.00000020        0.00000005
      33         -1.782324        1.000000        0.00000004        0.00000024        0.00000004
      34         -1.782130        1.000000        0.00000003        0.00000018        0.00000004
      35         -1.781736        1.000000        0.00000004        0.00000024        0.00000004
      36         -1.781230        1.000000        0.00000006        0.00000035        0.00000006
      37         -1.780847        1.000000        0.00000003        0.00000019        0.00000004
      38         -1.780487        1.000000        0.00000006        0.00000033        0.00000006
      39         -1.780184        1.000000        0.00000002        0.00000017        0.00000005
      40         -1.779550        1.000000        0.00000003        0.00000020        0.00000005
      41         -1.779259        1.000000        0.00000004        0.00000033        0.00000005
      42         -1.778921        1.000000        0.00000004        0.00000039        0.00000006
      43         -1.778390        1.000000        0.00000001        0.00000006        0.00000003
      44         -1.778140        1.000000        0.00000001        0.00000006        0.00000003
      45         -1.777912        1.000000        0.00000002        0.00000010        0.00000003
      46         -1.777514        1.000000        0.00000001        0.00000012        0.00000004
      47         -1.777362        1.000000        0.00000004        0.00000034        0.00000005
      48         -1.776787        1.000000        0.00000005        0.00000033        0.00000006
      49         -1.776537        1.000000        0.00000003        0.00000018        0.00000003
      50         -1.776457        1.000000        0.00000004        0.00000024        0.00000004
      51         -1.776029        1.000000        0.00000002        0.00000015        0.00000004
      52         -1.774038        1.000000        0.00000001        0.00000008        0.00000002
      53         -1.773797        1.000000        0.00000003        0.00000029        0.00000002
      54         -1.773665        1.000000        0.00000001        0.00000008        0.00000002
      55         -1.772725        1.000000        0.00000001        0.00000009        0.00000001
      56         -1.772546        1.000000        0.00000002        0.00000015        0.00000003
      57         -1.772041        1.000000        0.00000003        0.00000020        0.00000003
      58         -1.771662        1.000000        0.00000002        0.00000014        0.00000002
      59         -1.771364        1.000000        0.00000002        0.00000013        0.00000004
      60         -1.770813        1.000000        0.00000002        0.00000009        0.00000003
      61         -1.770640        1.000000        0.00000001        0.00000006        0.00000002
      62         -1.770449        1.000000        0.00000001        0.00000005        0.00000002
      63         -1.770188        1.000000        0.00000002        0.00000013        0.00000004
      64         -1.770126        1.000000        0.00000002        0.00000016        0.00000004
      65         -1.769991        1.000000        0.00000005        0.00000035        0.00000005
      66         -1.769845        1.000000        0.00000002        0.00000014        0.00000003
      67         -1.769763        1.000000        0.00000002        0.00000009        0.00000002
      68         -1.769661        1.000000        0.00000003        0.00000026        0.00000004
      69         -1.769465        1.000000        0.00000001        0.00000009        0.00000003
      70         -1.769351        1.000000        0.00000002        0.00000016        0.00000004
      71         -1.769328        1.000000        0.00000003        0.00000014        0.00000002
      72         -1.769216        1.000000        0.00000002        0.00000018        0.00000004
      73         -1.769129        1.000000        0.00000002        0.00000013        0.00000003
      74         -1.769070        1.000000        0.00000001        0.00000008        0.00000003
      75         -1.768941        1.000000        0.00000001        0.00000008        0.00000003
      76         -1.768822        1.000000        0.00000003        0.00000020        0.00000006
      77         -1.768707        1.000000        0.00000001        0.00000010        0.00000003
      78         -1.768585        1.000000        0.00000002        0.00000011        0.00000002
      79         -1.768439        1.000000        0.00000003        0.00000024        0.00000006
      80         -1.768329        1.000000        0.00000001        0.00000006        0.00000002
      81         -1.768089        1.000000        0.00000001        0.00000012        0.00000009
      82         -1.767883        1.000000        0.00000002        0.00000012        0.00000006
      83         -1.767662        1.000000        0.00000001        0.00000012        0.00000005
      84         -1.767495        1.000000        0.00000001        0.00000008        0.00000003
      85         -1.767311        1.000000        0.00000003        0.00000020        0.00000003
      86         -1.767266        1.000000        0.00000001        0.00000013        0.00000003
      87         -1.767060        1.000000        0.00000001        0.00000008        0.00000004
      88         -1.767025        1.000000        0.00000002        0.00000012        0.00000010
      89         -1.766872        1.000000        0.00000001        0.00000011        0.00000003
      90         -1.766524        1.000000        0.00000003        0.00000018        0.00000009
      91         -1.766405        1.000000        0.00000004        0.00000032        0.00000014
      92         -1.766254        1.000000        0.00000007        0.00000041        0.00000012
      93         -1.766123        1.000000        0.00000003        0.00000022        0.00000006
      94         -1.765857        1.000000        0.00000001        0.00000011        0.00000004
      95         -1.765515        1.000000        0.00000004        0.00000022        0.00000007
      96         -1.765181        1.000000        0.00000002        0.00000017        0.00000008
      97         -1.765105        1.000000        0.00000002        0.00000013        0.00000005
      98         -1.764967        1.000000        0.00000001        0.00000007        0.00000002
      99         -1.764710        1.000000        0.00000002        0.00000012        0.00000003
     100         -1.764440        1.000000        0.00000001        0.00000007        0.00000003
     101         -1.764248        1.000000        0.00000001        0.00000007        0.00000002
     102         -1.763945        1.000000        0.00000002        0.00000010        0.00000003
     103         -1.763804        1.000000        0.00000002        0.00000013        0.00000005
     104         -1.763351        1.000000        0.00000002        0.00000011        0.00000002
     105         -1.763205        1.000000        0.00000001        0.00000005        0.00000001
     106         -1.763107        1.000000        0.00000002        0.00000020        0.00000003
     107         -1.762531        1.000000        0.00000002        0.00000018        0.00000003
     108         -1.762343        1.000000        0.00000002        0.00000012        0.00000002
     109         -1.761453        1.000000        0.00000001        0.00000004        0.00000001
     110         -1.760969        1.000000        0.00000001        0.00000007        0.00000001
     111         -1.760481        1.000000        0.00000001        0.00000002        0.00000001
     112         -1.760009        1.000000        0.00000001        0.00000009        0.00000002
     113         -1.759531        1.000000        0.00000000        0.00000003        0.00000001
     114         -1.759105        1.000000        0.00000001        0.00000004        0.00000001
     115         -1.758777        1.000000        0.00000000        0.00000002        0.00000001
     116         -1.757462        1.000000        0.00000000        0.00000001        0.00000000
     117         -1.756221        1.000000        0.00000000        0.00000001        0.00000000
     118         -1.755333        1.000000        0.00000000        0.00000001        0.00000000
     119         -1.754385        1.000000        0.00000000        0.00000001        0.00000000
     120         -1.752742        1.000000        0.00000000        0.00000000        0.00000000
     121         -1.131181        1.000000        0.00748307        0.00187638        0.00025423
     122         -1.128658        1.000000        0.01490814        0.00330163        0.00046742
     123         -1.128000        1.000000        0.01519117        0.00320618        0.00046001
     124         -1.126427        1.000000        0.00101852        0.00021435        0.00003115
     125         -1.120469        1.000000        0.00524881        0.00098935        0.00014054
     126         -1.119202        1.000000        0.01300547        0.00204411        0.00031418
     127         -1.117081        1.000000        0.02249079        0.00300806        0.00047918
     128         -1.116156        1.000000        0.01935487        0.00474844        0.00072153
     129         -1.115054        1.000000        0.01998923        0.00334055        0.00051995
     130         -1.111818        1.000000        0.03204801        0.00411321        0.00069396
     131         -1.111610        1.000000        0.01377077        0.00233399        0.00040639
     132         -1.110976        1.000000        0.01034119        0.00119997        0.00020193
     133         -1.109888        1.000000        0.02039243        0.00261635        0.00038796
     134         -1.108601        1.000000        0.00369599        0.00074523        0.00012409
     135         -1.108036        1.000000        0.01582797        0.00147586        0.00023992
     136         -1.107349        1.000000        0.01285839        0.00223969        0.00039575
     137         -1.106797        1.000000        0.00526261        0.00099129        0.00018403
     138         -1.106077        1.000000        0.02693403        0.00293978        0.00049626
     139         -1.104162        1.000000        0.07340539        0.00510457        0.00081918
     140         -1.102892        1.000000        0.02566391        0.00326596        0.00058589
     141         -1.102196        1.000000        0.02232297        0.00184434        0.00029483
     142         -1.101581        1.000000        0.01950466        0.00173771        0.00030882
     143         -1.101215        1.000000        0.02165162        0.00206079        0.00032313
     144         -1.099602        1.000000        0.01822737        0.00232641        0.00039702
     145         -1.098107        1.000000        0.02496374        0.00162401        0.00030920
     146         -1.097450        1.000000        0.06068642        0.00309111        0.00042956
     147         -1.097046        1.000000        0.01856166        0.00185789        0.00032842
     148         -1.095795        1.000000        0.02977385        0.00192601        0.00035616
     149         -1.095192        1.000000        0.02591521        0.00221068        0.00041680
     150         -1.093515        1.000000        0.03571851        0.00180861        0.00031975
     151         -1.093123        1.000000        0.05063299        0.00252439        0.00051448
     152         -1.092614        1.000000        0.04209501        0.00240965        0.00040434
     153         -1.091821        1.000000        0.03458347        0.00249204        0.00038487
     154         -1.090761        1.000000        0.05816771        0.00327006        0.00049673
     155         -1.090597        1.000000        0.03965873        0.00284012        0.00098990
     156         -1.089544        1.000000        0.06709978        0.00429688        0.00104142
     157         -1.088154        1.000000        0.03581686        0.00407054        0.00071409
     158         -1.086960        1.000000        0.01596588        0.00146459        0.00029843
     159         -1.086718        1.000000        0.02100809        0.00196895        0.00028910
     160         -1.085525        1.000000        0.08134144        0.00291856        0.00060146
     161         -1.084219        1.000000        0.00873368        0.00057108        0.00011960
     162         -1.082734        1.000000        0.01783937        0.00159936        0.00024425
     163         -1.082381        1.000000        0.08451071        0.00545701        0.00115523
     164         -1.080807        1.000000        0.03792190        0.00138756        0.00027726
     165         -1.080293        1.000000        0.05210684        0.00181577        0.00049698
     166         -1.079453        1.000000        0.04984825        0.00162023        0.00038938
     167         -1.078246        1.000000        0.02507678        0.00127429        0.00023442
     168         -1.077774        1.000000        0.03435740        0.00187382        0.00037162
     169         -1.077143        1.000000        0.02570904        0.00108475        0.00020089
     170         -1.076426        1.000000        0.01236996        0.00077779        0.00018677
     171         -1.076145        1.000000        0.02478820        0.00183124        0.00031658
     172         -1.074526        1.000000        0.01519035        0.00173316        0.00028753
     173         -1.074368        1.000000        0.02185496        0.00204933        0.00032880
     174         -1.073652        1.000000        0.04006906        0.00207231        0.00030696
     175         -1.072808        1.000000        0.04444760        0.00133472        0.00023920
     176         -1.072152        1.000000        0.01986640        0.00178735        0.00025875
     177         -1.071192        1.000000        0.05927036        0.00294745        0.00038760
     178         -1.070444        1.000000        0.06249662        0.00350198        0.00058988
     179         -1.070141        1.000000        0.02889869        0.00209711        0.00042556
     180         -1.069416        1.000000        0.02646747        0.00142825        0.00033308
     181         -1.069179        1.000000        0.05259288        0.00262491        0.00066870
     182         -1.067610        1.000000        0.04754787        0.00242965        0.00050763
     183         -1.066240        1.000000        0.03611347        0.00241907        0.00037072
     184         -1.065124        1.000000        0.03413793        0.00191196        0.00033860
     185         -1.064565        1.000000        0.02818494        0.00177304        0.00036037
     186         -1.063575        1.000000        0.05135150        0.00251790        0.00048635
     187         -1.062901        1.000000        0.05431507        0.00231819        0.00048780
     188         -1.062274        1.000000        0.05210604        0.00205858        0.00045020
     189         -1.061481        1.000000        0.02656105        0.00113322        0.00041731
     190         -1.061312        1.000000        0.03960806        0.00134530        0.00024081
     191         -1.060592        1.000000        0.02802345        0.00099571        0.00021113
     192         -1.059297        1.000000        0.01799174        0.00074010        0.00019356
     193         -1.058643        1.000000        0.03291456        0.00130940        0.00024326
     194         -1.058262        1.000000        0.05190997        0.00273771        0.00068951
     195         -1.057127        1.000000        0.07133402        0.00266443        0.00044913
     196         -1.056224        1.000000        0.08536449        0.00415334        0.00058541
     197         -1.056050        1.000000        0.17165370        0.00483699        0.00050330
     198         -1.054881        1.000000        0.06317083        0.00305536        0.00040552
     199         -1.054669        1.000000        0.02976255        0.00110763        0.00022335
     200         -1.053605        1.000000        0.03739794        0.00162826        0.00030778
     201         -1.053457        1.000000        0.01611104        0.00092630        0.00019798
     202         -1.052589        1.000000        0.00780645        0.00094928        0.00020715
     203         -1.052089        1.000000        0.01756004        0.00103317        0.00019199
     204         -1.051299        1.000000        0.03112924        0.00111095        0.00023095
     205         -1.050676        1.000000        0.03456293        0.00133382        0.00033254
     206         -1.050307        1.000000        0.03079822        0.00128195        0.00026965
     207         -1.049921        1.000000        0.04000735        0.00166369        0.00040606
     208         -1.049485        1.000000        0.01767348        0.00095983        0.00035971
     209         -1.049126        1.000000        0.01979483        0.00073463        0.00014633
     210         -1.048445        1.000000        0.05218724        0.00142696        0.00024820
     211         -1.048201        1.000000        0.02638325        0.00064238        0.00013368
     212         -1.047911        1.000000        0.04239179        0.00124078        0.00015933
     213         -1.047620        1.000000        0.01353792        0.00085842        0.00023245
     214         -1.046931        1.000000        0.06341948        0.00160214        0.00033696
     215         -1.046733        1.000000        0.04269606        0.00097131        0.00014657
     216         -1.046634        1.000000        0.06282728        0.00218579        0.00044506
     217         -1.045930        1.000000        0.00992931        0.00038165        0.00007481
     218         -1.045069        1.000000        0.05958394        0.00178659        0.00026167
     219         -1.044350        1.000000        0.01052899        0.00052236        0.00012327
     220         -1.043623        1.000000        0.09433322        0.00230137        0.00040024
     221         -1.043421        1.000000        0.22291371        0.00653166        0.00065840
     222         -1.042778        1.000000        0.00998615        0.00023121        0.00002186
     223         -1.042701        1.000000        0.01263324        0.00055875        0.00012127
     224         -1.042424        1.000000        0.02955548        0.00127030        0.00029023
     225         -1.041682        1.000000        0.03775619        0.00083811        0.00014547
     226         -1.041498        1.000000        0.09887160        0.00385195        0.00068353
     227         -1.040837        1.000000        0.05376775        0.00139995        0.00031353
     228         -1.040496        1.000000        0.01185893        0.00053656        0.00014537
     229         -1.040151        1.000000        0.02967367        0.00121128        0.00027266
     230         -1.039686        1.000000        0.00638953        0.00028230        0.00007420
     231         -1.038961        1.000000        0.01440361        0.00043973        0.00012216
     232         -1.038553        1.000000        0.04055306        0.00109731        0.00013253
     233         -1.038476        1.000000        0.02195482        0.00068790        0.00015005
     234         -1.038152        1.000000        0.00341289        0.00023035        0.00008802
     235         -1.038041        1.000000        0.00472053        0.00026172        0.00013822
     236         -1.036855        1.000000        0.03610239        0.00129864        0.00030202
     237         -1.036488        1.000000        0.03605293        0.00134733        0.00023196
     238         -1.036186        1.000000        0.00696794        0.00017920        0.00003984
     239         -1.036068        1.000000        0.00988821        0.00034096        0.00008296
     240         -1.035757        1.000000        0.04755484        0.00133645        0.00029947
     241         -1.035291        1.000000        0.02183396        0.00121451        0.00024145
     242         -1.035048        1.000000        0.03721795        0.00118140        0.00020681
     243         -1.035000        1.000000        0.02005699        0.00098002        0.00022443
     244         -1.034454        1.000000        0.01179344        0.00049001        0.00009234
     245         -1.034219        1.000000        0.04743380        0.00188015        0.00046516
     246         -1.033874        1.000000        0.04214173        0.00132266        0.00018208
     247         -1.033507        1.000000        0.00450187        0.00011819        0.00001640
     248         -1.033219        1.000000        0.02862992        0.00127829        0.00029619
     249         -1.033056        1.000000        0.01899161        0.00069451        0.00013698
     250         -1.032307        1.000000        0.03165406        0.00095692        0.00013074
     251         -1.031324        1.000000        0.07864952        0.00271194        0.00056747
     252         -1.031144        1.000000        0.06597878        0.00179986        0.00023147
     253         -1.030643        1.000000        0.07004277        0.00192371        0.00027794
     254         -1.030284        1.000000        0.03526263        0.00103415        0.00033737
     255         -1.030062        1.000000        0.02730991        0.00072800        0.00022790
     256         -1.029818        1.000000        0.03523047        0.00136151        0.00054484
     257         -1.028552        1.000000        0.01126692        0.00032963        0.00013149
     258         -1.027578        1.000000        0.04619315        0.00145948        0.00059962
     259         -1.027121        1.000000        0.00512878        0.00026996        0.00006998
     260         -1.026880        1.000000        0.04946697        0.00139190        0.00025352
     261         -1.026226        1.000000        0.02418251        0.00075002        0.00018222
     262         -1.025765        1.000000        0.00742411        0.00025417        0.00003204
     263         -1.025299        1.000000        0.00104685        0.00004473        0.00001304
     264         -1.025158        1.000000        0.02430249        0.00116870        0.00037665
     265         -1.025007        1.000000        0.04388471        0.00159378        0.00032125
     266         -1.024422        1.000000        0.04637008        0.00210037        0.00097729
     267         -1.023793        1.000000        0.00487098        0.00013078        0.00003610
     268         -1.023594        1.000000        0.10119661        0.00394238        0.00086576
     269         -1.023069        1.000000        0.08477718        0.00209086        0.00035122
     270         -1.022603        1.000000        0.03914643        0.00092158        0.00014460
     271         -1.022074        1.000000        0.03823177        0.00132400        0.00062048
     272         -1.021695        1.000000        0.01040483        0.00032505        0.00016161
     273         -1.021372        1.000000        0.00108037        0.00002980        0.00000480
     274         -1.021076        1.000000        0.14852519        0.00411744        0.00058197
     275         -1.019492        1.000000        0.03893638        0.00155053        0.00085002
     276         -1.018003        1.000000        0.00130672        0.00005819        0.00002645
     277         -1.016408        1.000000        0.15117826        0.00365750        0.00054124
     278         -1.016278        1.000000        0.01560544        0.00041124        0.00006507
     279         -1.015338        1.000000        0.01005014        0.00033254        0.00019801
     280         -1.013851        1.000000        0.00057665        0.00002046        0.00000575
     281         -1.010223        1.000000        0.03645818        0.00304651        0.00084573
     282         -1.009666        1.000000        0.00002337        0.00000154        0.00000058
     283         -1.007726        1.000000        0.35780751        0.00774600        0.00051373
     284         -1.007300        1.000000        0.03683739        0.00082744        0.00006219
     285         -1.006916        1.000000        0.00014856        0.00000358        0.00000035
     286         -0.889442        1.000000        0.00000969        0.00000554        0.00000234
     287         -0.869424        1.000000        0.00000277        0.00000826        0.00000281
     288         -0.867225        1.000000        0.00000474        0.00000309        0.00000136
     289         -0.864755        1.000000        0.00000422        0.00000754        0.00000202
     290         -0.860947        1.000000        0.00000339        0.00000434        0.00000155
     291         -0.846899        1.000000        0.00000265        0.00000523        0.00000201
     292         -0.844423        1.000000        0.00000231        0.00000705        0.00000147
     293         -0.843782        1.000000        0.00000201        0.00000692        0.00000191
     294         -0.840445        1.000000        0.00000286        0.00000266        0.00000103
     295         -0.821748        1.000000        0.00000267        0.00000437        0.00000159
     296         -0.818927        1.000000        0.00000278        0.00001074        0.00000187
     297         -0.814033        1.000000        0.00001027        0.00001082        0.00000265
     298         -0.808071        1.000000        0.00000332        0.00000374        0.00000136
     299         -0.807076        1.000000        0.00000224        0.00000362        0.00000124
     300         -0.806003        1.000000        0.00000214        0.00000383        0.00000118
     301         -0.805433        1.000000        0.00000562        0.00002395        0.00000334
     302         -0.803208        1.000000        0.00000253        0.00000411        0.00000123
     303         -0.802271        1.000000        0.00000327        0.00001124        0.00000160
     304         -0.801014        1.000000        0.00000148        0.00000648        0.00000161
     305         -0.800419        1.000000        0.00000307        0.00001206        0.00000184
     306         -0.800163        1.000000        0.00000182        0.00000715        0.00000169
     307         -0.798966        1.000000        0.00000078        0.00000451        0.00000116