# Projected DOS for list 295 of 1 atoms, at iteration step i = 0, E(Fermi) =    -0.245567 a.u.
#     MO Eigenvalue [a.u.]      Occupation                 s                 p                 d
       1         -3.122063        1.000000        0.00318513        0.00636592        0.00048293
       2         -3.121278        1.000000        0.00006758        0.00033226        0.00003336
       3         -3.121021        1.000000        0.00005273        0.00094542        0.00013003
       4         -3.120578        1.000000        0.00003155        0.00012140        0.00003080
       5         -3.120271        1.000000        0.00033547        0.00100906        0.00009607
       6         -3.119857        1.000000        0.00003937        0.00039558        0.00004017
       7         -3.119652        1.000000        0.00002728        0.00012291        0.00001259
       8         -3.119624        1.000000        0.00015060        0.00035969        0.00004358
       9         -3.119219        1.000000        0.00175217        0.00467441        0.00043763
      10         -3.119023        1.000000        0.00038840        0.00094167        0.00007823
      11         -3.118913        1.000000        0.00034055        0.00106126        0.00010502
      12         -3.118874        1.000000        0.00039097        0.00142971        0.00015030
      13         -3.118317        1.000000        0.00011049        0.00037261        0.00003607
      14         -3.118249        1.000000        0.00000322        0.00002448        0.00000251
      15         -3.117895        1.000000        0.00000029        0.00000059        0.00000021
      16         -3.117383        1.000000        0.00174765        0.00755770        0.00105846
      17         -3.117165        1.000000        0.00000019        0.00000047        0.00000005
      18         -3.116815        1.000000        0.00006858        0.00024470        0.00002544
      19         -3.116436        1.000000        0.00003742        0.00013316        0.00001628
      20         -3.116021        1.000000        0.00000572        0.00005235        0.00000652
      21         -3.115852        1.000000        0.00002803        0.00016383        0.00001672
      22         -3.115668        1.000000        0.00000012        0.00000358        0.00000062
      23         -3.115368        1.000000        0.00000119        0.00005134        0.00000524
      24         -3.115339        1.000000        0.00001358        0.00004935        0.00001026
      25         -3.115041        1.000000        0.00000008        0.00000455        0.00000041
      26         -3.114366        1.000000        0.00000012        0.00000097        0.00000015
      27         -3.113951        1.000000        0.00000018        0.00000125        0.00000023
      28         -3.113764        1.000000        0.00000051        0.00000042        0.00000010
      29         -3.112534        1.000000        0.00000000        0.00000001        0.00000000
      30         -3.111679        1.000000        0.00000073        0.00000022        0.00000001
      31         -1.784233        1.000000        0.00027908        0.00069176        0.00005309
      32         -1.782870        1.000000        0.00017122        0.00044153        0.00004997
      33         -1.782324        1.000000        0.00071794        0.00173583        0.00012451
      34         -1.782130        1.000000        0.00105185        0.00253376        0.00018310
      35         -1.781736        1.000000        0.00001385        0.00022178        0.00008867
      36         -1.781230        1.000000        0.00046213        0.00119049        0.00009344
      37         -1.780847        1.000000        0.00001171        0.00029175        0.00010815
      38         -1.780487        1.000000        0.00002361        0.00014918        0.00004594
      39         -1.780184        1.000000        0.00000243        0.00002777        0.00002542
      40         -1.779550        1.000000        0.00002625        0.00019445        0.00006659
      41         -1.779259        1.000000        0.00001038        0.00004822        0.00002035
      42         -1.778921        1.000000        0.00001111        0.00004393        0.00000885
      43         -1.778390        1.000000        0.00022096        0.00076200        0.00015173
      44         -1.778140        1.000000        0.00008221        0.00032586        0.00007042
      45         -1.777912        1.000000        0.00001335        0.00028651        0.00012851
      46         -1.777514        1.000000        0.00001325        0.00013091        0.00005143
      47         -1.777362        1.000000        0.00000139        0.00013947        0.00004899
      48         -1.776787        1.000000        0.00008635        0.00021773        0.00002006
      49         -1.776537        1.000000        0.00001010        0.00038338        0.00020858
      50         -1.776457        1.000000        0.00007898        0.00020486        0.00002140
      51         -1.776029        1.000000        0.00001321        0.00009280        0.00004764
      52         -1.774038        1.000000        0.00026842        0.00058495        0.00011053
      53         -1.773797        1.000000        0.00013775        0.00026212        0.00007530
      54         -1.773665        1.000000        0.00008111        0.00023383        0.00004735
      55         -1.772725        1.000000        0.00029202        0.00083235        0.00022582
      56         -1.772546        1.000000        0.00000145        0.00020902        0.00010162
      57         -1.772041        1.000000        0.00053651        0.00082836        0.00006263
      58         -1.771662        1.000000        0.00008972        0.00032144        0.00009776
      59         -1.771364        1.000000        0.00005659        0.00031252        0.00008012
      60         -1.770813        1.000000        0.00021534        0.00087239        0.00026595
      61         -1.770640        1.000000        0.00005595        0.00041281        0.00014378
      62         -1.770449        1.000000        0.00000340        0.00102323        0.00041514
      63         -1.770188        1.000000        0.00007220        0.00016006        0.00002083
      64         -1.770126        1.000000        0.00014305        0.00040625        0.00014424
      65         -1.769991        1.000000        0.00020269        0.00047364        0.00010630
      66         -1.769845        1.000000        0.00003621        0.00113818        0.00056617
      67         -1.769763        1.000000        0.00003225        0.00008349        0.00004098
      68         -1.769661        1.000000        0.00003140        0.00039113        0.00014831
      69         -1.769465        1.000000        0.00003468        0.00092659        0.00042472
      70         -1.769351        1.000000        0.00001772        0.00121271        0.00050270
      71         -1.769328        1.000000        0.00001214        0.00115996        0.00044867
      72         -1.769216        1.000000        0.00003098        0.00010169        0.00000900
      73         -1.769129        1.000000        0.00000993        0.00038038        0.00021482
      74         -1.769070        1.000000        0.00004947        0.00020478        0.00005167
      75         -1.768941        1.000000        0.00003743        0.00060908        0.00023775
      76         -1.768822        1.000000        0.00005700        0.00029676        0.00011919
      77         -1.768707        1.000000        0.00000314        0.00012996        0.00006399
      78         -1.768585        1.000000        0.00000155        0.00028047        0.00010838
      79         -1.768439        1.000000        0.00001247        0.00065200        0.00027577
      80         -1.768329        1.000000        0.00002407        0.00004037        0.00000676
      81         -1.768089        1.000000        0.00005081        0.00031983        0.00007429
      82         -1.767883        1.000000        0.00001536        0.00002632        0.00000997
      83         -1.767662        1.000000        0.00001505        0.00006747        0.00001981
      84         -1.767495        1.000000        0.00003633        0.00011916        0.00002880
      85         -1.767311        1.000000        0.00001833        0.00008995        0.00003480
      86         -1.767266        1.000000        0.00000811        0.00003067        0.00001134
      87         -1.767060        1.000000        0.00000866        0.00002864        0.00001541
      88         -1.767025        1.000000        0.00000742        0.00004882        0.00001547
      89         -1.766872        1.000000        0.00000041        0.00004577        0.00007229
      90         -1.766524        1.000000        0.00000022        0.00001588        0.00000456
      91         -1.766405        1.000000        0.00000015        0.00002071        0.00000540
      92         -1.766254        1.000000        0.00000039        0.00002549        0.00001883
      93         -1.766123        1.000000        0.00000144        0.00005802        0.00004319
      94         -1.765857        1.000000        0.00003540        0.00007984        0.00002015
      95         -1.765515        1.000000        0.00001049        0.00005700        0.00001722
      96         -1.765181        1.000000        0.00003958        0.00009450        0.00003781
      97         -1.765105        1.000000        0.00000073        0.00004964        0.00005469
      98         -1.764967        1.000000        0.00000942        0.00014224        0.00008866
      99         -1.764710        1.000000        0.00000256        0.00003587        0.00002702
     100         -1.764440        1.000000        0.00003281        0.00021629        0.00008224
     101         -1.764248        1.000000        0.00008392        0.00026871        0.00010153
     102         -1.763945        1.000000        0.00000279        0.00004189        0.00002124
     103         -1.763804        1.000000        0.00000334        0.00001529        0.00000674
     104         -1.763351        1.000000        0.00001312        0.00016275        0.00004158
     105         -1.763205        1.000000        0.00003673        0.00008430        0.00001997
     106         -1.763107        1.000000        0.00002621        0.00026049        0.00009601
     107         -1.762531        1.000000        0.00003461        0.00026184        0.00011729
     108         -1.762343        1.000000        0.00000033        0.00004558        0.00003699
     109         -1.761453        1.000000        0.00000527        0.00004844        0.00001757
     110         -1.760969        1.000000        0.00000005        0.00002319        0.00003318
     111         -1.760481        1.000000        0.00001766        0.00006071        0.00002523
     112         -1.760009        1.000000        0.00001606        0.00006421        0.00001937
     113         -1.759531        1.000000        0.00000388        0.00006942        0.00002862
     114         -1.759105        1.000000        0.00000510        0.00001723        0.00000662
     115         -1.758777        1.000000        0.00000057        0.00047911        0.00020644
     116         -1.757462        1.000000        0.00000101        0.00009620        0.00013357
     117         -1.756221        1.000000        0.00000007        0.00005439        0.00002257
     118         -1.755333        1.000000        0.00000007        0.00005690        0.00007098
     119         -1.754385        1.000000        0.00000009        0.00005171        0.00003087
     120         -1.752742        1.000000        0.00000003        0.00000309        0.00000285
     121         -1.131181        1.000000        0.00000134        0.00000238        0.00000017
     122         -1.128658        1.000000        0.00000230        0.00000448        0.00000035
     123         -1.128000        1.000000        0.00000240        0.00000455        0.00000035
     124         -1.126427        1.000000        0.00000014        0.00000027        0.00000002
     125         -1.120469        1.000000        0.00000003        0.00000012        0.00000001
     126         -1.119202        1.000000        0.00000001        0.00000005        0.00000000
     127         -1.117081        1.000000        0.00000195        0.00000467        0.00000042
     128         -1.116156        1.000000        0.00000079        0.00000137        0.00000009
     129         -1.115054        1.000000        0.00000155        0.00000275        0.00000020
     130         -1.111818        1.000000        0.00000097        0.00000251        0.00000025
     131         -1.111610        1.000000        0.00000019        0.00000063        0.00000006
     132         -1.110976        1.000000        0.00000019        0.00000026        0.00000001
     133         -1.109888        1.000000        0.00000167        0.00000305        0.00000022
     134         -1.108601        1.000000        0.00000001        0.00000003        0.00000000
     135         -1.108036        1.000000        0.00000257        0.00000518        0.00000043
     136         -1.107349        1.000000        0.00000191        0.00000408        0.00000036
     137         -1.106797        1.000000        0.00000021        0.00000042        0.00000004
     138         -1.106077        1.000000        0.00000006        0.00000017        0.00000002
     139         -1.104162        1.000000        0.00001312        0.00002857        0.00000239
     140         -1.102892        1.000000        0.00000026        0.00000079        0.00000006
     141         -1.102196        1.000000        0.00000004        0.00000009        0.00000001
     142         -1.101581        1.000000        0.00000187        0.00000433        0.00000039
     143         -1.101215        1.000000        0.00000399        0.00000903        0.00000080
     144         -1.099602        1.000000        0.00000321        0.00000659        0.00000059
     145         -1.098107        1.000000        0.00000008        0.00000041        0.00000006
     146         -1.097450        1.000000        0.00000024        0.00000067        0.00000006
     147         -1.097046        1.000000        0.00000124        0.00000278        0.00000024
     148         -1.095795        1.000000        0.00000405        0.00000866        0.00000081
     149         -1.095192        1.000000        0.00000275        0.00000649        0.00000061
     150         -1.093515        1.000000        0.00000168        0.00000350        0.00000033
     151         -1.093123        1.000000        0.00000013        0.00000039        0.00000004
     152         -1.092614        1.000000        0.00000163        0.00000437        0.00000046
     153         -1.091821        1.000000        0.00000005        0.00000007        0.00000001
     154         -1.090761        1.000000        0.00002661        0.00006245        0.00000652
     155         -1.090597        1.000000        0.00001791        0.00004721        0.00000505
     156         -1.089544        1.000000        0.00006232        0.00015222        0.00001622
     157         -1.088154        1.000000        0.00001464        0.00003740        0.00000407
     158         -1.086960        1.000000        0.00002969        0.00007406        0.00000822
     159         -1.086718        1.000000        0.00002073        0.00005185        0.00000573
     160         -1.085525        1.000000        0.00003495        0.00009029        0.00001044
     161         -1.084219        1.000000        0.00000149        0.00000388        0.00000045
     162         -1.082734        1.000000        0.00002401        0.00006178        0.00000731
     163         -1.082381        1.000000        0.00007926        0.00020663        0.00002448
     164         -1.080807        1.000000        0.00000525        0.00001359        0.00000169
     165         -1.080293        1.000000        0.00000735        0.00002024        0.00000238
     166         -1.079453        1.000000        0.00000210        0.00000586        0.00000074
     167         -1.078246        1.000000        0.00000295        0.00000791        0.00000100
     168         -1.077774        1.000000        0.00001260        0.00003223        0.00000394
     169         -1.077143        1.000000        0.00000613        0.00001696        0.00000219
     170         -1.076426        1.000000        0.00000175        0.00000469        0.00000056
     171         -1.076145        1.000000        0.00000007        0.00000012        0.00000001
     172         -1.074526        1.000000        0.00000164        0.00000607        0.00000084
     173         -1.074368        1.000000        0.00000758        0.00001865        0.00000227
     174         -1.073652        1.000000        0.00000002        0.00000032        0.00000006
     175         -1.072808        1.000000        0.00000159        0.00000594        0.00000089
     176         -1.072152        1.000000        0.00000002        0.00000010        0.00000001
     177         -1.071192        1.000000        0.00000001        0.00000004        0.00000000
     178         -1.070444        1.000000        0.00000001        0.00000005        0.00000002
     179         -1.070141        1.000000        0.00000247        0.00000645        0.00000075
     180         -1.069416        1.000000        0.00000041        0.00000087        0.00000010
     181         -1.069179        1.000000        0.00000117        0.00000440        0.00000065
     182         -1.067610        1.000000        0.00000274        0.00000897        0.00000129
     183         -1.066240        1.000000        0.00000172        0.00000502        0.00000069
     184         -1.065124        1.000000        0.00000233        0.00000649        0.00000092
     185         -1.064565        1.000000        0.00000003        0.00000019        0.00000004
     186         -1.063575        1.000000        0.00000209        0.00000546        0.00000072
     187         -1.062901        1.000000        0.00000018        0.00000046        0.00000005
     188         -1.062274        1.000000        0.00000262        0.00000835        0.00000124
     189         -1.061481        1.000000        0.00000207        0.00000592        0.00000078
     190         -1.061312        1.000000        0.00000257        0.00000702        0.00000097
     191         -1.060592        1.000000        0.00000124        0.00000382        0.00000054
     192         -1.059297        1.000000        0.00000036        0.00000090        0.00000012
     193         -1.058643        1.000000        0.00000077        0.00000239        0.00000035
     194         -1.058262        1.000000        0.00000042        0.00000070        0.00000005
     195         -1.057127        1.000000        0.00000672        0.00001686        0.00000234
     196         -1.056224        1.000000        0.00000231        0.00000709        0.00000106
     197         -1.056050        1.000000        0.00002573        0.00007065        0.00001031
     198         -1.054881        1.000000        0.00000408        0.00001041        0.00000143
     199         -1.054669        1.000000        0.00000278        0.00000718        0.00000099
     200         -1.053605        1.000000        0.00000031        0.00000143        0.00000024
     201         -1.053457        1.000000        0.00000043        0.00000168        0.00000029
     202         -1.052589        1.000000        0.00000045        0.00000117        0.00000017
     203         -1.052089        1.000000        0.00000004        0.00000008        0.00000000
     204         -1.051299        1.000000        0.00000015        0.00000104        0.00000023
     205         -1.050676        1.000000        0.00000018        0.00000014        0.00000000
     206         -1.050307        1.000000        0.00000001        0.00000012        0.00000003
     207         -1.049921        1.000000        0.00000006        0.00000022        0.00000003
     208         -1.049485        1.000000        0.00000014        0.00000073        0.00000014
     209         -1.049126        1.000000        0.00000000        0.00000006        0.00000001
     210         -1.048445        1.000000        0.00000000        0.00000007        0.00000001
     211         -1.048201        1.000000        0.00000003        0.00000013        0.00000002
     212         -1.047911        1.000000        0.00000000        0.00000004        0.00000001
     213         -1.047620        1.000000        0.00000004        0.00000035        0.00000006
     214         -1.046931        1.000000        0.00000003        0.00000040        0.00000006
     215         -1.046733        1.000000        0.00000001        0.00000007        0.00000000
     216         -1.046634        1.000000        0.00000007        0.00000008        0.00000000
     217         -1.045930        1.000000        0.00000003        0.00000004        0.00000000
     218         -1.045069        1.000000        0.00000001        0.00000011        0.00000002
     219         -1.044350        1.000000        0.00000002        0.00000003        0.00000000
     220         -1.043623        1.000000        0.00000005        0.00000004        0.00000000
     221         -1.043421        1.000000        0.00000016        0.00000024        0.00000001
     222         -1.042778        1.000000        0.00000001        0.00000002        0.00000000
     223         -1.042701        1.000000        0.00000011        0.00000029        0.00000005
     224         -1.042424        1.000000        0.00000051        0.00000119        0.00000017
     225         -1.041682        1.000000        0.00000002        0.00000004        0.00000000
     226         -1.041498        1.000000        0.00000169        0.00000414        0.00000051
     227         -1.040837        1.000000        0.00000002        0.00000006        0.00000001
     228         -1.040496        1.000000        0.00000030        0.00000078        0.00000010
     229         -1.040151        1.000000        0.00000018        0.00000048        0.00000005
     230         -1.039686        1.000000        0.00000003        0.00000007        0.00000001
     231         -1.038961        1.000000        0.00000002        0.00000007        0.00000001
     232         -1.038553        1.000000        0.00000047        0.00000154        0.00000023
     233         -1.038476        1.000000        0.00000001        0.00000005        0.00000001
     234         -1.038152        1.000000        0.00000001        0.00000002        0.00000000
     235         -1.038041        1.000000        0.00000002        0.00000008        0.00000002
     236         -1.036855        1.000000        0.00000015        0.00000045        0.00000008
     237         -1.036488        1.000000        0.00000016        0.00000042        0.00000007
     238         -1.036186        1.000000        0.00000001        0.00000006        0.00000001
     239         -1.036068        1.000000        0.00000016        0.00000057        0.00000010
     240         -1.035757        1.000000        0.00000001        0.00000002        0.00000000
     241         -1.035291        1.000000        0.00000007        0.00000026        0.00000004
     242         -1.035048        1.000000        0.00000050        0.00000179        0.00000032
     243         -1.035000        1.000000        0.00000003        0.00000012        0.00000001
     244         -1.034454        1.000000        0.00000016        0.00000049        0.00000008
     245         -1.034219        1.000000        0.00000082        0.00000264        0.00000041
     246         -1.033874        1.000000        0.00000000        0.00000000        0.00000000
     247         -1.033507        1.000000        0.00000006        0.00000019        0.00000003
     248         -1.033219        1.000000        0.00000004        0.00000016        0.00000003
     249         -1.033056        1.000000        0.00000002        0.00000012        0.00000002
     250         -1.032307        1.000000        0.00000011        0.00000035        0.00000006
     251         -1.031324        1.000000        0.00000008        0.00000036        0.00000006
     252         -1.031144        1.000000        0.00000061        0.00000251        0.00000040
     253         -1.030643        1.000000        0.00000033        0.00000130        0.00000023
     254         -1.030284        1.000000        0.00000001        0.00000003        0.00000001
     255         -1.030062        1.000000        0.00000000        0.00000001        0.00000000
     256         -1.029818        1.000000        0.00000019        0.00000060        0.00000009
     257         -1.028552        1.000000        0.00000000        0.00000000        0.00000000
     258         -1.027578        1.000000        0.00000030        0.00000107        0.00000015
     259         -1.027121        1.000000        0.00000000        0.00000000        0.00000000
     260         -1.026880        1.000000        0.00000000        0.00000009        0.00000002
     261         -1.026226        1.000000        0.00000004        0.00000011        0.00000001
     262         -1.025765        1.000000        0.00000001        0.00000000        0.00000000
     263         -1.025299        1.000000        0.00000000        0.00000000        0.00000000
     264         -1.025158        1.000000        0.00000000        0.00000001        0.00000000
     265         -1.025007        1.000000        0.00000009        0.00000009        0.00000000
     266         -1.024422        1.000000        0.00000006        0.00000009        0.00000001
     267         -1.023793        1.000000        0.00000000        0.00000000        0.00000000
     268         -1.023594        1.000000        0.00000000        0.00000002        0.00000000
     269         -1.023069        1.000000        0.00000007        0.00000010        0.00000000
     270         -1.022603        1.000000        0.00000002        0.00000003        0.00000000
     271         -1.022074        1.000000        0.00000002        0.00000001        0.00000000
     272         -1.021695        1.000000        0.00000001        0.00000001        0.00000000
     273         -1.021372        1.000000        0.00000000        0.00000000        0.00000000
     274         -1.021076        1.000000        0.00000000        0.00000001        0.00000000
     275         -1.019492        1.000000        0.00000012        0.00000037        0.00000005
     276         -1.018003        1.000000        0.00000000        0.00000000        0.00000000
     277         -1.016408        1.000000        0.00000000        0.00000000        0.00000000
     278         -1.016278        1.000000        0.00000001        0.00000001        0.00000000
     279         -1.015338        1.000000        0.00000000        0.00000001        0.00000000
     280         -1.013851        1.000000        0.00000000        0.00000000        0.00000000
     281         -1.010223        1.000000        0.00000032        0.00000103        0.00000015
     282         -1.009666        1.000000        0.00000000        0.00000000        0.00000000
     283         -1.007726        1.000000        0.00000000        0.00000006        0.00000001
     284         -1.007300        1.000000        0.00000002        0.00000004        0.00000000
     285         -1.006916        1.000000        0.00000000        0.00000000        0.00000000
     286         -0.889442        1.000000        0.00924455        0.00055544        0.00000619
     287         -0.869424        1.000000        0.00869916        0.00083317        0.00003644
     288         -0.867225        1.000000        0.00654286        0.00055608        0.00000580
     289         -0.864755        1.000000        0.01991173        0.00102381        0.00000918
     290         -0.860947        1.000000        0.00352731        0.00135393        0.00006180
     291         -0.846899        1.000000        0.03109913        0.00102750        0.00001192
     292         -0.844423        1.000000        0.00012222        0.00045280        0.00005201
     293         -0.843782        1.000000        0.00228510        0.00066835        0.00003048
     294         -0.840445        1.000000        0.00373607        0.00129581        0.00002561
     295         -0.821748        1.000000        0.04050387        0.00067160        0.00009784
     296         -0.818927        1.000000        0.00365484        0.00092627        0.00003423
     297         -0.814033        1.000000        0.01391054        0.00059749        0.00012275
     298         -0.808071        1.000000        0.00008697        0.00016815        0.00003218
     299         -0.807076        1.000000        0.02829504        0.00028710        0.00002556
     300         -0.806003        1.000000        0.03126252        0.00034944        0.00001172
     301         -0.805433        1.000000        0.00005907        0.00129499        0.00005597
     302         -0.803208        1.000000        0.00698017        0.00032308        0.00008390
     303         -0.802271        1.000000        0.00649389        0.00064220        0.00008849
     304         -0.801014        1.000000        0.00004460        0.00157339        0.00010911
     305         -0.800419        1.000000        0.00889694        0.00116148        0.00017144
     306         -0.800163        1.000000        0.01845251        0.00028239        0.00004419
     307         -0.798966        1.000000        0.00378211        0.00032376        0.00002338