# Projected DOS for list 117 of 1 atoms, at iteration step i = 0, E(Fermi) =    -0.245567 a.u.
#     MO Eigenvalue [a.u.]      Occupation                 s                 p                 d
       1         -3.122063        1.000000        0.00000000        0.00000001        0.00000000
       2         -3.121278        1.000000        0.00000000        0.00000000        0.00000000
       3         -3.121021        1.000000        0.00000000        0.00000000        0.00000000
       4         -3.120578        1.000000        0.00000000        0.00000000        0.00000000
       5         -3.120271        1.000000        0.00000000        0.00000000        0.00000000
       6         -3.119857        1.000000        0.00000000        0.00000000        0.00000000
       7         -3.119652        1.000000        0.00000000        0.00000000        0.00000000
       8         -3.119624        1.000000        0.00000000        0.00000000        0.00000000
       9         -3.119219        1.000000        0.00000000        0.00000000        0.00000000
      10         -3.119023        1.000000        0.00000000        0.00000000        0.00000000
      11         -3.118913        1.000000        0.00000000        0.00000000        0.00000000
      12         -3.118874        1.000000        0.00000000        0.00000000        0.00000000
      13         -3.118317        1.000000        0.00000000        0.00000000        0.00000000
      14         -3.118249        1.000000        0.00000000        0.00000000        0.00000000
      15         -3.117895        1.000000        0.00000000        0.00000000        0.00000000
      16         -3.117383        1.000000        0.00000000        0.00000000        0.00000000
      17         -3.117165        1.000000        0.00000000        0.00000000        0.00000000
      18         -3.116815        1.000000        0.00000000        0.00000000        0.00000000
      19         -3.116436        1.000000        0.00000000        0.00000000        0.00000000
      20         -3.116021        1.000000        0.00000000        0.00000000        0.00000000
      21         -3.115852        1.000000        0.00000000        0.00000000        0.00000000
      22         -3.115668        1.000000        0.00000000        0.00000000        0.00000000
      23         -3.115368        1.000000        0.00000000        0.00000000        0.00000000
      24         -3.115339        1.000000        0.00000000        0.00000000        0.00000000
      25         -3.115041        1.000000        0.00000000        0.00000000        0.00000000
      26         -3.114366        1.000000        0.00000000        0.00000000        0.00000000
      27         -3.113951        1.000000        0.00000000        0.00000000        0.00000000
      28         -3.113764        1.000000        0.00000000        0.00000000        0.00000000
      29         -3.112534        1.000000        0.00000000        0.00000000        0.00000000
      30         -3.111679        1.000000        0.00000000        0.00000000        0.00000000
      31         -1.784233        1.000000        0.00000000        0.00000000        0.00000000
      32         -1.782870        1.000000        0.00000000        0.00000000        0.00000000
      33         -1.782324        1.000000        0.00000000        0.00000000        0.00000000
      34         -1.782130        1.000000        0.00000000        0.00000000        0.00000000
      35         -1.781736        1.000000        0.00000000        0.00000000        0.00000000
      36         -1.781230        1.000000        0.00000000        0.00000000        0.00000000
      37         -1.780847        1.000000        0.00000000        0.00000000        0.00000000
      38         -1.780487        1.000000        0.00000000        0.00000000        0.00000000
      39         -1.780184        1.000000        0.00000000        0.00000000        0.00000000
      40         -1.779550        1.000000        0.00000000        0.00000000        0.00000000
      41         -1.779259        1.000000        0.00000000        0.00000000        0.00000000
      42         -1.778921        1.000000        0.00000000        0.00000000        0.00000000
      43         -1.778390        1.000000        0.00000000        0.00000000        0.00000000
      44         -1.778140        1.000000        0.00000000        0.00000000        0.00000000
      45         -1.777912        1.000000        0.00000000        0.00000000        0.00000000
      46         -1.777514        1.000000        0.00000000        0.00000000        0.00000000
      47         -1.777362        1.000000        0.00000000        0.00000000        0.00000000
      48         -1.776787        1.000000        0.00000000        0.00000000        0.00000000
      49         -1.776537        1.000000        0.00000000        0.00000000        0.00000000
      50         -1.776457        1.000000        0.00000000        0.00000000        0.00000000
      51         -1.776029        1.000000        0.00000000        0.00000000        0.00000000
      52         -1.774038        1.000000        0.00000000        0.00000000        0.00000000
      53         -1.773797        1.000000        0.00000000        0.00000000        0.00000000
      54         -1.773665        1.000000        0.00000000        0.00000000        0.00000000
      55         -1.772725        1.000000        0.00000000        0.00000000        0.00000000
      56         -1.772546        1.000000        0.00000000        0.00000000        0.00000000
      57         -1.772041        1.000000        0.00000000        0.00000000        0.00000000
      58         -1.771662        1.000000        0.00000000        0.00000000        0.00000000
      59         -1.771364        1.000000        0.00000000        0.00000000        0.00000000
      60         -1.770813        1.000000        0.00000000        0.00000000        0.00000000
      61         -1.770640        1.000000        0.00000000        0.00000000        0.00000000
      62         -1.770449        1.000000        0.00000000        0.00000000        0.00000000
      63         -1.770188        1.000000        0.00000000        0.00000000        0.00000000
      64         -1.770126        1.000000        0.00000000        0.00000000        0.00000000
      65         -1.769991        1.000000        0.00000000        0.00000000        0.00000000
      66         -1.769845        1.000000        0.00000000        0.00000000        0.00000000
      67         -1.769763        1.000000        0.00000000        0.00000000        0.00000000
      68         -1.769661        1.000000        0.00000000        0.00000000        0.00000000
      69         -1.769465        1.000000        0.00000000        0.00000000        0.00000000
      70         -1.769351        1.000000        0.00000000        0.00000000        0.00000000
      71         -1.769328        1.000000        0.00000000        0.00000000        0.00000000
      72         -1.769216        1.000000        0.00000000        0.00000000        0.00000000
      73         -1.769129        1.000000        0.00000000        0.00000000        0.00000000
      74         -1.769070        1.000000        0.00000000        0.00000000        0.00000000
      75         -1.768941        1.000000        0.00000000        0.00000000        0.00000000
      76         -1.768822        1.000000        0.00000000        0.00000000        0.00000000
      77         -1.768707        1.000000        0.00000000        0.00000000        0.00000000
      78         -1.768585        1.000000        0.00000000        0.00000000        0.00000000
      79         -1.768439        1.000000        0.00000000        0.00000000        0.00000000
      80         -1.768329        1.000000        0.00000000        0.00000000        0.00000000
      81         -1.768089        1.000000        0.00000000        0.00000000        0.00000000
      82         -1.767883        1.000000        0.00000000        0.00000000        0.00000000
      83         -1.767662        1.000000        0.00000000        0.00000000        0.00000000
      84         -1.767495        1.000000        0.00000000        0.00000000        0.00000000
      85         -1.767311        1.000000        0.00000000        0.00000000        0.00000000
      86         -1.767266        1.000000        0.00000000        0.00000000        0.00000000
      87         -1.767060        1.000000        0.00000000        0.00000000        0.00000000
      88         -1.767025        1.000000        0.00000000        0.00000000        0.00000000
      89         -1.766872        1.000000        0.00000000        0.00000000        0.00000000
      90         -1.766524        1.000000        0.00000000        0.00000000        0.00000000
      91         -1.766405        1.000000        0.00000000        0.00000000        0.00000000
      92         -1.766254        1.000000        0.00000000        0.00000000        0.00000000
      93         -1.766123        1.000000        0.00000000        0.00000000        0.00000000
      94         -1.765857        1.000000        0.00000000        0.00000000        0.00000000
      95         -1.765515        1.000000        0.00000000        0.00000000        0.00000000
      96         -1.765181        1.000000        0.00000000        0.00000000        0.00000000
      97         -1.765105        1.000000        0.00000000        0.00000000        0.00000000
      98         -1.764967        1.000000        0.00000000        0.00000000        0.00000000
      99         -1.764710        1.000000        0.00000000        0.00000000        0.00000000
     100         -1.764440        1.000000        0.00000000        0.00000000        0.00000000
     101         -1.764248        1.000000        0.00000000        0.00000000        0.00000000
     102         -1.763945        1.000000        0.00000000        0.00000000        0.00000000
     103         -1.763804        1.000000        0.00000000        0.00000000        0.00000000
     104         -1.763351        1.000000        0.00000000        0.00000000        0.00000000
     105         -1.763205        1.000000        0.00000000        0.00000000        0.00000000
     106         -1.763107        1.000000        0.00000000        0.00000000        0.00000000
     107         -1.762531        1.000000        0.00000000        0.00000000        0.00000000
     108         -1.762343        1.000000        0.00000000        0.00000000        0.00000000
     109         -1.761453        1.000000        0.00000000        0.00000000        0.00000000
     110         -1.760969        1.000000        0.00000000        0.00000000        0.00000000
     111         -1.760481        1.000000        0.00000000        0.00000000        0.00000000
     112         -1.760009        1.000000        0.00000000        0.00000000        0.00000000
     113         -1.759531        1.000000        0.00000000        0.00000000        0.00000000
     114         -1.759105        1.000000        0.00000000        0.00000000        0.00000000
     115         -1.758777        1.000000        0.00000000        0.00000000        0.00000000
     116         -1.757462        1.000000        0.00000000        0.00000000        0.00000000
     117         -1.756221        1.000000        0.00000000        0.00000000        0.00000000
     118         -1.755333        1.000000        0.00000000        0.00000000        0.00000000
     119         -1.754385        1.000000        0.00000000        0.00000000        0.00000000
     120         -1.752742        1.000000        0.00000000        0.00000000        0.00000000
     121         -1.131181        1.000000        0.00108596        0.00013810        0.00002310
     122         -1.128658        1.000000        0.00140905        0.00041877        0.00009194
     123         -1.128000        1.000000        0.00007804        0.00094685        0.00015963
     124         -1.126427        1.000000        0.00006921        0.00009678        0.00002426
     125         -1.120469        1.000000        0.00269276        0.00200901        0.00048278
     126         -1.119202        1.000000        0.00093707        0.00161082        0.00024505
     127         -1.117081        1.000000        0.00000474        0.00181141        0.00039280
     128         -1.116156        1.000000        0.00075012        0.00078980        0.00017402
     129         -1.115054        1.000000        0.00030689        0.00050306        0.00013663
     130         -1.111818        1.000000        0.00087765        0.00277568        0.00067615
     131         -1.111610        1.000000        0.00000015        0.00042226        0.00008072
     132         -1.110976        1.000000        0.00882320        0.00323811        0.00100123
     133         -1.109888        1.000000        0.00081845        0.00266209        0.00066972
     134         -1.108601        1.000000        0.00520114        0.00175920        0.00033446
     135         -1.108036        1.000000        0.00495050        0.00126757        0.00056587
     136         -1.107349        1.000000        0.00029488        0.00348915        0.00071555
     137         -1.106797        1.000000        0.00052052        0.00038110        0.00024256
     138         -1.106077        1.000000        0.00079251        0.00021220        0.00010046
     139         -1.104162        1.000000        0.00000752        0.00021614        0.00004477
     140         -1.102892        1.000000        0.00025065        0.00338081        0.00076507
     141         -1.102196        1.000000        0.00215586        0.00085037        0.00020948
     142         -1.101581        1.000000        0.00598565        0.00365212        0.00117680
     143         -1.101215        1.000000        0.00539931        0.00174390        0.00059116
     144         -1.099602        1.000000        0.00046965        0.00100773        0.00017243
     145         -1.098107        1.000000        0.00123907        0.00090511        0.00020783
     146         -1.097450        1.000000        0.00512585        0.00018711        0.00008294
     147         -1.097046        1.000000        0.00028576        0.00045286        0.00021078
     148         -1.095795        1.000000        0.00283158        0.00180872        0.00072343
     149         -1.095192        1.000000        0.00388400        0.00160229        0.00036479
     150         -1.093515        1.000000        0.00075712        0.00115535        0.00049269
     151         -1.093123        1.000000        0.00024305        0.00073419        0.00020534
     152         -1.092614        1.000000        0.00513889        0.00085304        0.00013547
     153         -1.091821        1.000000        0.00857491        0.00455495        0.00150712
     154         -1.090761        1.000000        0.00001135        0.00235443        0.00065763
     155         -1.090597        1.000000        0.00001241        0.00094913        0.00021712
     156         -1.089544        1.000000        0.00336675        0.00195629        0.00038510
     157         -1.088154        1.000000        0.00113012        0.00038018        0.00010504
     158         -1.086960        1.000000        0.00150931        0.00032195        0.00003679
     159         -1.086718        1.000000        0.00133979        0.00228226        0.00056401
     160         -1.085525        1.000000        0.00432244        0.00103430        0.00054158
     161         -1.084219        1.000000        0.00000861        0.00075697        0.00023640
     162         -1.082734        1.000000        0.00176492        0.00143911        0.00045070
     163         -1.082381        1.000000        0.00001803        0.00096203        0.00024614
     164         -1.080807        1.000000        0.00521420        0.00055462        0.00030283
     165         -1.080293        1.000000        0.00013980        0.00033575        0.00013355
     166         -1.079453        1.000000        0.00001605        0.00031795        0.00012456
     167         -1.078246        1.000000        0.00005993        0.00103395        0.00037318
     168         -1.077774        1.000000        0.00548130        0.00391142        0.00153707
     169         -1.077143        1.000000        0.00091342        0.00108788        0.00037900
     170         -1.076426        1.000000        0.00204993        0.00201855        0.00085700
     171         -1.076145        1.000000        0.00691772        0.00009993        0.00017135
     172         -1.074526        1.000000        0.00301244        0.00034424        0.00020092
     173         -1.074368        1.000000        0.00131184        0.00110337        0.00027259
     174         -1.073652        1.000000        0.00016096        0.00104004        0.00035133
     175         -1.072808        1.000000        0.00003252        0.00804026        0.00245263
     176         -1.072152        1.000000        0.00288849        0.00057472        0.00025244
     177         -1.071192        1.000000        0.00000662        0.00269181        0.00089629
     178         -1.070444        1.000000        0.00065887        0.00100538        0.00037538
     179         -1.070141        1.000000        0.00222561        0.00017562        0.00003803
     180         -1.069416        1.000000        0.00007631        0.00143540        0.00058927
     181         -1.069179        1.000000        0.00013046        0.00189967        0.00067731
     182         -1.067610        1.000000        0.00009292        0.00017597        0.00007448
     183         -1.066240        1.000000        0.00148660        0.00400733        0.00112853
     184         -1.065124        1.000000        0.00016600        0.00025743        0.00014542
     185         -1.064565        1.000000        0.00371327        0.00167729        0.00080983
     186         -1.063575        1.000000        0.00032354        0.00346192        0.00108538
     187         -1.062901        1.000000        0.00006622        0.00024403        0.00011047
     188         -1.062274        1.000000        0.00112704        0.00081716        0.00027903
     189         -1.061481        1.000000        0.00631496        0.00224067        0.00089133
     190         -1.061312        1.000000        0.00014994        0.00226889        0.00084985
     191         -1.060592        1.000000        0.00002410        0.00315175        0.00119704
     192         -1.059297        1.000000        0.00003405        0.00102157        0.00037387
     193         -1.058643        1.000000        0.00085116        0.00079104        0.00025529
     194         -1.058262        1.000000        0.00030016        0.00009057        0.00002158
     195         -1.057127        1.000000        0.00155725        0.00032517        0.00020165
     196         -1.056224        1.000000        0.00009883        0.00042678        0.00016158
     197         -1.056050        1.000000        0.00026048        0.00098606        0.00027297
     198         -1.054881        1.000000        0.00000621        0.00023686        0.00008301
     199         -1.054669        1.000000        0.00055020        0.00042250        0.00012854
     200         -1.053605        1.000000        0.00002959        0.00306839        0.00101119
     201         -1.053457        1.000000        0.00001929        0.00109995        0.00045947
     202         -1.052589        1.000000        0.00050546        0.00020812        0.00013044
     203         -1.052089        1.000000        0.00074610        0.00086219        0.00031339
     204         -1.051299        1.000000        0.00054002        0.00129119        0.00054273
     205         -1.050676        1.000000        0.00008397        0.00335158        0.00104856
     206         -1.050307        1.000000        0.00001419        0.00030753        0.00013683
     207         -1.049921        1.000000        0.00007591        0.00277448        0.00110646
     208         -1.049485        1.000000        0.00006277        0.00009760        0.00002343
     209         -1.049126        1.000000        0.00007417        0.00005389        0.00002382
     210         -1.048445        1.000000        0.00029667        0.00703669        0.00270805
     211         -1.048201        1.000000        0.00030650        0.00371774        0.00152527
     212         -1.047911        1.000000        0.00004277        0.00087272        0.00025302
     213         -1.047620        1.000000        0.00006109        0.00183806        0.00063681
     214         -1.046931        1.000000        0.00003958        0.00056052        0.00020616
     215         -1.046733        1.000000        0.00007034        0.00055975        0.00022065
     216         -1.046634        1.000000        0.00034004        0.00146341        0.00055901
     217         -1.045930        1.000000        0.00051731        0.00611193        0.00252336
     218         -1.045069        1.000000        0.00099805        0.00594582        0.00237833
     219         -1.044350        1.000000        0.00004508        0.00029136        0.00010310
     220         -1.043623        1.000000        0.00001747        0.00092086        0.00032480
     221         -1.043421        1.000000        0.00000264        0.00019382        0.00007053
     222         -1.042778        1.000000        0.00001048        0.00177080        0.00065806
     223         -1.042701        1.000000        0.00002958        0.00054520        0.00017574
     224         -1.042424        1.000000        0.00006811        0.00087079        0.00041755
     225         -1.041682        1.000000        0.00004030        0.00082593        0.00026998
     226         -1.041498        1.000000        0.00004423        0.01552973        0.00557593
     227         -1.040837        1.000000        0.00000683        0.00008647        0.00001987
     228         -1.040496        1.000000        0.00021339        0.00354549        0.00131112
     229         -1.040151        1.000000        0.00001871        0.00154436        0.00050720
     230         -1.039686        1.000000        0.00003437        0.00070941        0.00022280
     231         -1.038961        1.000000        0.00001444        0.00258667        0.00113608
     232         -1.038553        1.000000        0.00127445        0.02185356        0.00834473
     233         -1.038476        1.000000        0.00000051        0.00122081        0.00051437
     234         -1.038152        1.000000        0.00000551        0.00009227        0.00006614
     235         -1.038041        1.000000        0.00064282        0.01195967        0.00494285
     236         -1.036855        1.000000        0.00007429        0.00045430        0.00018480
     237         -1.036488        1.000000        0.00008945        0.00260227        0.00103435
     238         -1.036186        1.000000        0.00020464        0.00248797        0.00115715
     239         -1.036068        1.000000        0.00038709        0.00537772        0.00207776
     240         -1.035757        1.000000        0.00008363        0.00283693        0.00124868
     241         -1.035291        1.000000        0.00000887        0.00051623        0.00021469
     242         -1.035048        1.000000        0.00039670        0.00879493        0.00364127
     243         -1.035000        1.000000        0.00002654        0.00099447        0.00047508
     244         -1.034454        1.000000        0.00000336        0.00073374        0.00025711
     245         -1.034219        1.000000        0.00006367        0.00214170        0.00079829
     246         -1.033874        1.000000        0.00002684        0.00500755        0.00180730
     247         -1.033507        1.000000        0.00000387        0.00087968        0.00026835
     248         -1.033219        1.000000        0.00000230        0.00224804        0.00081005
     249         -1.033056        1.000000        0.00000344        0.00135100        0.00047272
     250         -1.032307        1.000000        0.00000232        0.00096519        0.00040670
     251         -1.031324        1.000000        0.00003767        0.00092103        0.00041350
     252         -1.031144        1.000000        0.00001569        0.00309213        0.00127587
     253         -1.030643        1.000000        0.00020152        0.02024813        0.00766877
     254         -1.030284        1.000000        0.00002625        0.00490890        0.00177946
     255         -1.030062        1.000000        0.00001023        0.00606426        0.00230139
     256         -1.029818        1.000000        0.00001816        0.00585534        0.00229254
     257         -1.028552        1.000000        0.00002808        0.00157449        0.00065646
     258         -1.027578        1.000000        0.00000822        0.00273727        0.00097174
     259         -1.027121        1.000000        0.00002572        0.00056660        0.00026469
     260         -1.026880        1.000000        0.00000093        0.00167360        0.00054245
     261         -1.026226        1.000000        0.00009017        0.01331456        0.00536166
     262         -1.025765        1.000000        0.00000644        0.00119612        0.00041838
     263         -1.025299        1.000000        0.00003919        0.00412550        0.00163674
     264         -1.025158        1.000000        0.00022238        0.02359118        0.00920547
     265         -1.025007        1.000000        0.00049330        0.02407291        0.00975605
     266         -1.024422        1.000000        0.00002469        0.00452358        0.00174587
     267         -1.023793        1.000000        0.00003073        0.00068390        0.00028173
     268         -1.023594        1.000000        0.00000505        0.00084296        0.00030637
     269         -1.023069        1.000000        0.00000255        0.00307814        0.00126541
     270         -1.022603        1.000000        0.00000139        0.00078934        0.00030142
     271         -1.022074        1.000000        0.00000813        0.00156381        0.00061209
     272         -1.021695        1.000000        0.00000284        0.00029890        0.00013175
     273         -1.021372        1.000000        0.00000446        0.00023170        0.00009798
     274         -1.021076        1.000000        0.00000127        0.00006411        0.00002870
     275         -1.019492        1.000000        0.00000983        0.00155581        0.00074680
     276         -1.018003        1.000000        0.00000473        0.01957168        0.01025287
     277         -1.016408        1.000000        0.00002277        0.00792949        0.00409280
     278         -1.016278        1.000000        0.00020565        0.07562576        0.03943750
     279         -1.015338        1.000000        0.00000006        0.00069664        0.00036789
     280         -1.013851        1.000000        0.00002975        0.00364204        0.00189360
     281         -1.010223        1.000000        0.00000316        0.00041888        0.00015930
     282         -1.009666        1.000000        0.00000009        0.00000045        0.00000024
     283         -1.007726        1.000000        0.00000701        0.00023703        0.00012667
     284         -1.007300        1.000000        0.00003633        0.00168074        0.00082976
     285         -1.006916        1.000000        0.00000006        0.00003506        0.00001874
     286         -0.889442        1.000000        0.00000002        0.00000003        0.00000000
     287         -0.869424        1.000000        0.00000000        0.00000000        0.00000000
     288         -0.867225        1.000000        0.00000000        0.00000001        0.00000000
     289         -0.864755        1.000000        0.00000000        0.00000001        0.00000000
     290         -0.860947        1.000000        0.00000000        0.00000000        0.00000000
     291         -0.846899        1.000000        0.00000000        0.00000000        0.00000000
     292         -0.844423        1.000000        0.00000000        0.00000000        0.00000000
     293         -0.843782        1.000000        0.00000000        0.00000001        0.00000000
     294         -0.840445        1.000000        0.00000000        0.00000000        0.00000000
     295         -0.821748        1.000000        0.00000000        0.00000000        0.00000000
     296         -0.818927        1.000000        0.00000000        0.00000000        0.00000000
     297         -0.814033        1.000000        0.00000002        0.00000004        0.00000000
     298         -0.808071        1.000000        0.00000000        0.00000000        0.00000000
     299         -0.807076        1.000000        0.00000000        0.00000000        0.00000000
     300         -0.806003        1.000000        0.00000000        0.00000001        0.00000000
     301         -0.805433        1.000000        0.00000000        0.00000000        0.00000000
     302         -0.803208        1.000000        0.00000000        0.00000000        0.00000000
     303         -0.802271        1.000000        0.00000000        0.00000000        0.00000000
     304         -0.801014        1.000000        0.00000000        0.00000000        0.00000000
     305         -0.800419        1.000000        0.00000000        0.00000000        0.00000000
     306         -0.800163        1.000000        0.00000000        0.00000000        0.00000000
     307         -0.798966        1.000000        0.00000000        0.00000000        0.00000000