# Projected DOS for atomic kind S at iteration step i = 0, E(Fermi) =    -0.245567 a.u.
#     MO Eigenvalue [a.u.]      Occupation                 s                 p                 d
       1         -3.122063        1.000000        0.02496647        0.04355460        0.00301855
       2         -3.121278        1.000000        0.02977447        0.04513413        0.00285791
       3         -3.121021        1.000000        0.01806445        0.04228660        0.00366938
       4         -3.120578        1.000000        0.02789876        0.04848664        0.00348321
       5         -3.120271        1.000000        0.01953181        0.04308188        0.00388284
       6         -3.119857        1.000000        0.01564230        0.04268860        0.00433716
       7         -3.119652        1.000000        0.01996298        0.04218880        0.00348054
       8         -3.119624        1.000000        0.01410301        0.03972527        0.00419063
       9         -3.119219        1.000000        0.01541938        0.04359874        0.00455200
      10         -3.119023        1.000000        0.01161596        0.04065394        0.00468079
      11         -3.118913        1.000000        0.00912121        0.03557914        0.00466088
      12         -3.118874        1.000000        0.00607676        0.03440712        0.00504387
      13         -3.118317        1.000000        0.01805310        0.04471324        0.00461210
      14         -3.118249        1.000000        0.01710013        0.04130647        0.00413196
      15         -3.117895        1.000000        0.01645591        0.04341049        0.00439244
      16         -3.117383        1.000000        0.01597841        0.04495363        0.00513242
      17         -3.117165        1.000000        0.01087924        0.03975885        0.00467791
      18         -3.116815        1.000000        0.02404216        0.04528338        0.00383417
      19         -3.116436        1.000000        0.01419968        0.04422228        0.00487601
      20         -3.116021        1.000000        0.01952519        0.04797183        0.00470128
      21         -3.115852        1.000000        0.01072699        0.03964723        0.00497685
      22         -3.115668        1.000000        0.02005903        0.04491833        0.00420673
      23         -3.115368        1.000000        0.00891988        0.03950758        0.00540081
      24         -3.115339        1.000000        0.00962648        0.03981983        0.00527126
      25         -3.115041        1.000000        0.01383807        0.04362014        0.00499956
      26         -3.114366        1.000000        0.01373039        0.04095734        0.00454280
      27         -3.113951        1.000000        0.00963041        0.03956507        0.00548758
      28         -3.113764        1.000000        0.00798407        0.04008940        0.00558185
      29         -3.112534        1.000000        0.01227843        0.04539952        0.00596138
      30         -3.111679        1.000000        0.01128588        0.04226796        0.00545418
      31         -1.784233        1.000000        0.00928399        0.02521032        0.00219003
      32         -1.782870        1.000000        0.00846289        0.02400086        0.00275575
      33         -1.782324        1.000000        0.00776146        0.02248858        0.00285793
      34         -1.782130        1.000000        0.00797683        0.02304440        0.00290578
      35         -1.781736        1.000000        0.00752523        0.02209554        0.00268025
      36         -1.781230        1.000000        0.00726861        0.02127585        0.00237196
      37         -1.780847        1.000000        0.00700124        0.02160613        0.00287058
      38         -1.780487        1.000000        0.00751211        0.02157127        0.00292754
      39         -1.780184        1.000000        0.00703869        0.02083214        0.00290619
      40         -1.779550        1.000000        0.00765969        0.02186692        0.00283224
      41         -1.779259        1.000000        0.00769673        0.02209962        0.00296889
      42         -1.778921        1.000000        0.00667357        0.01929600        0.00280434
      43         -1.778390        1.000000        0.00715391        0.02024617        0.00272696
      44         -1.778140        1.000000        0.00701176        0.02056111        0.00296442
      45         -1.777912        1.000000        0.00564488        0.01910090        0.00361262
      46         -1.777514        1.000000        0.00632039        0.01919498        0.00263465
      47         -1.777362        1.000000        0.00561754        0.01842314        0.00296121
      48         -1.776787        1.000000        0.00618015        0.01909443        0.00306676
      49         -1.776537        1.000000        0.00584615        0.01889702        0.00316247
      50         -1.776457        1.000000        0.00627615        0.01946439        0.00299543
      51         -1.776029        1.000000        0.00628478        0.01918401        0.00279098
      52         -1.774038        1.000000        0.00476172        0.01473583        0.00364353
      53         -1.773797        1.000000        0.01043016        0.01937651        0.00169971
      54         -1.773665        1.000000        0.00385642        0.01441205        0.00400007
      55         -1.772725        1.000000        0.00821720        0.02045744        0.00316708
      56         -1.772546        1.000000        0.00836896        0.02086211        0.00302472
      57         -1.772041        1.000000        0.00786107        0.01996236        0.00337110
      58         -1.771662        1.000000        0.00780418        0.02040953        0.00355810
      59         -1.771364        1.000000        0.00629795        0.02079346        0.00435238
      60         -1.770813        1.000000        0.00650195        0.02078409        0.00453079
      61         -1.770640        1.000000        0.00516083        0.01980385        0.00496165
      62         -1.770449        1.000000        0.00466737        0.01864123        0.00487872
      63         -1.770188        1.000000        0.00355481        0.01665424        0.00490572
      64         -1.770126        1.000000        0.00376869        0.01581352        0.00462776
      65         -1.769991        1.000000        0.00340505        0.01825419        0.00596370
      66         -1.769845        1.000000        0.00406880        0.01849959        0.00556058
      67         -1.769763        1.000000        0.00347765        0.01605247        0.00479494
      68         -1.769661        1.000000        0.00346710        0.01826838        0.00557128
      69         -1.769465        1.000000        0.00250728        0.01526466        0.00528676
      70         -1.769351        1.000000        0.00391609        0.01800729        0.00524789
      71         -1.769328        1.000000        0.00335193        0.01773266        0.00556022
      72         -1.769216        1.000000        0.00292427        0.01526685        0.00505712
      73         -1.769129        1.000000        0.00345023        0.01831020        0.00567266
      74         -1.769070        1.000000        0.00241645        0.01727301        0.00594439
      75         -1.768941        1.000000        0.00245093        0.01936794        0.00653705
      76         -1.768822        1.000000        0.00350137        0.01872225        0.00587391
      77         -1.768707        1.000000        0.00295243        0.01819505        0.00598601
      78         -1.768585        1.000000        0.00188405        0.01431332        0.00509080
      79         -1.768439        1.000000        0.00259262        0.01636397        0.00545354
      80         -1.768329        1.000000        0.00271729        0.01723300        0.00586289
      81         -1.768089        1.000000        0.00388436        0.02053094        0.00605772
      82         -1.767883        1.000000        0.00267087        0.01982266        0.00666053
      83         -1.767662        1.000000        0.00296110        0.02020619        0.00677523
      84         -1.767495        1.000000        0.00235686        0.01545166        0.00551103
      85         -1.767311        1.000000        0.00301393        0.01595744        0.00548523
      86         -1.767266        1.000000        0.00196853        0.01242786        0.00488206
      87         -1.767060        1.000000        0.00294665        0.01980782        0.00679717
      88         -1.767025        1.000000        0.00234411        0.02088375        0.00730507
      89         -1.766872        1.000000        0.00183840        0.01310678        0.00513573
      90         -1.766524        1.000000        0.00220141        0.01953929        0.00705833
      91         -1.766405        1.000000        0.00202924        0.02130207        0.00825943
      92         -1.766254        1.000000        0.00211775        0.02023399        0.00755506
      93         -1.766123        1.000000        0.00205395        0.01768927        0.00668695
      94         -1.765857        1.000000        0.00193391        0.01406583        0.00545015
      95         -1.765515        1.000000        0.00132900        0.01739446        0.00716362
      96         -1.765181        1.000000        0.00214294        0.01803489        0.00658103
      97         -1.765105        1.000000        0.00147774        0.01425595        0.00580017
      98         -1.764967        1.000000        0.00119311        0.01237556        0.00514745
      99         -1.764710        1.000000        0.00127253        0.01470072        0.00587139
     100         -1.764440        1.000000        0.00134010        0.01257640        0.00535599
     101         -1.764248        1.000000        0.00151861        0.01166293        0.00492767
     102         -1.763945        1.000000        0.00166916        0.01544162        0.00626482
     103         -1.763804        1.000000        0.00155346        0.01751148        0.00681250
     104         -1.763351        1.000000        0.00186369        0.01014835        0.00415886
     105         -1.763205        1.000000        0.00152277        0.01192649        0.00491110
     106         -1.763107        1.000000        0.00168313        0.00999065        0.00434192
     107         -1.762531        1.000000        0.00120194        0.00915536        0.00470443
     108         -1.762343        1.000000        0.00115919        0.00889205        0.00444690
     109         -1.761453        1.000000        0.00089524        0.00897798        0.00476075
     110         -1.760969        1.000000        0.00078565        0.00904010        0.00466782
     111         -1.760481        1.000000        0.00067806        0.00847431        0.00488436
     112         -1.760009        1.000000        0.00090009        0.00903217        0.00504233
     113         -1.759531        1.000000        0.00049929        0.00794174        0.00479410
     114         -1.759105        1.000000        0.00113450        0.00935124        0.00466619
     115         -1.758777        1.000000        0.00012758        0.01034503        0.00470836
     116         -1.757462        1.000000        0.00006429        0.00851463        0.00458053
     117         -1.756221        1.000000        0.00010473        0.01004577        0.00502821
     118         -1.755333        1.000000        0.00006344        0.00635272        0.00447731
     119         -1.754385        1.000000        0.00006060        0.00665141        0.00478900
     120         -1.752742        1.000000        0.00008236        0.00495772        0.00458159
     121         -1.131181        1.000000        0.00000643        0.00000858        0.00000046
     122         -1.128658        1.000000        0.00000590        0.00000927        0.00000060
     123         -1.128000        1.000000        0.00000765        0.00001091        0.00000066
     124         -1.126427        1.000000        0.00000045        0.00000068        0.00000004
     125         -1.120469        1.000000        0.00000250        0.00000416        0.00000026
     126         -1.119202        1.000000        0.00000392        0.00000724        0.00000050
     127         -1.117081        1.000000        0.00000624        0.00001289        0.00000095
     128         -1.116156        1.000000        0.00000822        0.00001534        0.00000105
     129         -1.115054        1.000000        0.00000820        0.00001235        0.00000078
     130         -1.111818        1.000000        0.00000751        0.00001535        0.00000117
     131         -1.111610        1.000000        0.00000445        0.00000750        0.00000055
     132         -1.110976        1.000000        0.00000467        0.00000628        0.00000040
     133         -1.109888        1.000000        0.00000729        0.00001173        0.00000087
     134         -1.108601        1.000000        0.00000040        0.00000090        0.00000007
     135         -1.108036        1.000000        0.00000565        0.00001039        0.00000081
     136         -1.107349        1.000000        0.00000529        0.00000960        0.00000074
     137         -1.106797        1.000000        0.00000115        0.00000217        0.00000016
     138         -1.106077        1.000000        0.00000509        0.00000955        0.00000074
     139         -1.104162        1.000000        0.00002178        0.00004395        0.00000391
     140         -1.102892        1.000000        0.00000380        0.00000866        0.00000073
     141         -1.102196        1.000000        0.00000272        0.00000621        0.00000049
     142         -1.101581        1.000000        0.00000463        0.00000945        0.00000081
     143         -1.101215        1.000000        0.00000573        0.00001236        0.00000115
     144         -1.099602        1.000000        0.00000731        0.00001339        0.00000116
     145         -1.098107        1.000000        0.00000410        0.00001201        0.00000113
     146         -1.097450        1.000000        0.00000733        0.00001953        0.00000176
     147         -1.097046        1.000000        0.00000247        0.00000589        0.00000063
     148         -1.095795        1.000000        0.00001018        0.00002101        0.00000188
     149         -1.095192        1.000000        0.00000519        0.00001436        0.00000150
     150         -1.093515        1.000000        0.00000669        0.00001610        0.00000145
     151         -1.093123        1.000000        0.00001078        0.00003455        0.00000367
     152         -1.092614        1.000000        0.00000582        0.00001391        0.00000130
     153         -1.091821        1.000000        0.00000474        0.00001021        0.00000082
     154         -1.090761        1.000000        0.00003689        0.00007872        0.00000793
     155         -1.090597        1.000000        0.00003853        0.00017241        0.00002018
     156         -1.089544        1.000000        0.00008184        0.00022306        0.00002464
     157         -1.088154        1.000000        0.00002792        0.00009295        0.00001103
     158         -1.086960        1.000000        0.00003518        0.00008310        0.00000922
     159         -1.086718        1.000000        0.00002340        0.00005837        0.00000649
     160         -1.085525        1.000000        0.00004751        0.00011007        0.00001242
     161         -1.084219        1.000000        0.00000439        0.00001273        0.00000131
     162         -1.082734        1.000000        0.00002651        0.00006802        0.00000791
     163         -1.082381        1.000000        0.00009183        0.00024270        0.00002800
     164         -1.080807        1.000000        0.00001511        0.00004447        0.00000459
     165         -1.080293        1.000000        0.00004686        0.00013744        0.00001337
     166         -1.079453        1.000000        0.00000500        0.00001976        0.00000201
     167         -1.078246        1.000000        0.00000410        0.00001229        0.00000147
     168         -1.077774        1.000000        0.00006113        0.00016905        0.00001685
     169         -1.077143        1.000000        0.00001027        0.00002820        0.00000336
     170         -1.076426        1.000000        0.00000295        0.00000759        0.00000084
     171         -1.076145        1.000000        0.00001185        0.00003646        0.00000348
     172         -1.074526        1.000000        0.00006451        0.00019366        0.00001855
     173         -1.074368        1.000000        0.00003652        0.00010168        0.00001028
     174         -1.073652        1.000000        0.00002921        0.00009014        0.00000879
     175         -1.072808        1.000000        0.00000762        0.00002291        0.00000265
     176         -1.072152        1.000000        0.00000299        0.00000976        0.00000095
     177         -1.071192        1.000000        0.00000762        0.00002383        0.00000244
     178         -1.070444        1.000000        0.00001734        0.00004622        0.00000554
     179         -1.070141        1.000000        0.00002075        0.00006562        0.00000646
     180         -1.069416        1.000000        0.00000667        0.00002768        0.00000304
     181         -1.069179        1.000000        0.00001422        0.00004834        0.00000521
     182         -1.067610        1.000000        0.00000665        0.00002900        0.00000394
     183         -1.066240        1.000000        0.00000718        0.00003192        0.00000353
     184         -1.065124        1.000000        0.00001129        0.00003732        0.00000401
     185         -1.064565        1.000000        0.00001355        0.00004280        0.00000413
     186         -1.063575        1.000000        0.00001973        0.00005794        0.00000639
     187         -1.062901        1.000000        0.00002476        0.00008943        0.00001053
     188         -1.062274        1.000000        0.00002087        0.00007491        0.00000930
     189         -1.061481        1.000000        0.00000841        0.00003552        0.00000453
     190         -1.061312        1.000000        0.00002361        0.00006244        0.00000697
     191         -1.060592        1.000000        0.00000496        0.00002259        0.00000279
     192         -1.059297        1.000000        0.00000558        0.00001875        0.00000184
     193         -1.058643        1.000000        0.00002455        0.00006209        0.00000694
     194         -1.058262        1.000000        0.00001684        0.00008006        0.00000889
     195         -1.057127        1.000000        0.00002014        0.00006840        0.00000797
     196         -1.056224        1.000000        0.00004544        0.00015378        0.00001469
     197         -1.056050        1.000000        0.00003074        0.00010492        0.00001344
     198         -1.054881        1.000000        0.00003841        0.00011021        0.00001127
     199         -1.054669        1.000000        0.00001459        0.00004243        0.00000468
     200         -1.053605        1.000000        0.00000252        0.00001204        0.00000128
     201         -1.053457        1.000000        0.00000826        0.00002530        0.00000271
     202         -1.052589        1.000000        0.00001398        0.00003424        0.00000402
     203         -1.052089        1.000000        0.00002024        0.00008674        0.00000899
     204         -1.051299        1.000000        0.00002274        0.00009541        0.00000995
     205         -1.050676        1.000000        0.00003356        0.00013458        0.00001464
     206         -1.050307        1.000000        0.00001692        0.00004536        0.00000466
     207         -1.049921        1.000000        0.00005556        0.00022805        0.00002501
     208         -1.049485        1.000000        0.00001031        0.00004327        0.00000452
     209         -1.049126        1.000000        0.00000616        0.00002094        0.00000218
     210         -1.048445        1.000000        0.00001360        0.00004697        0.00000504
     211         -1.048201        1.000000        0.00000966        0.00003051        0.00000308
     212         -1.047911        1.000000        0.00000662        0.00002210        0.00000228
     213         -1.047620        1.000000        0.00001129        0.00003211        0.00000346
     214         -1.046931        1.000000        0.00001401        0.00006087        0.00000663
     215         -1.046733        1.000000        0.00000294        0.00000849        0.00000082
     216         -1.046634        1.000000        0.00002431        0.00010170        0.00001120
     217         -1.045930        1.000000        0.00000469        0.00001944        0.00000215
     218         -1.045069        1.000000        0.00000773        0.00002742        0.00000287
     219         -1.044350        1.000000        0.00000424        0.00001486        0.00000159
     220         -1.043623        1.000000        0.00001825        0.00006287        0.00000687
     221         -1.043421        1.000000        0.00005673        0.00015055        0.00001481
     222         -1.042778        1.000000        0.00000091        0.00000291        0.00000028
     223         -1.042701        1.000000        0.00000704        0.00001929        0.00000216
     224         -1.042424        1.000000        0.00002294        0.00007004        0.00000757
     225         -1.041682        1.000000        0.00002266        0.00006181        0.00000648
     226         -1.041498        1.000000        0.00002724        0.00012941        0.00001302
     227         -1.040837        1.000000        0.00005003        0.00013196        0.00001406
     228         -1.040496        1.000000        0.00000545        0.00002149        0.00000227
     229         -1.040151        1.000000        0.00001614        0.00004364        0.00000478
     230         -1.039686        1.000000        0.00000497        0.00001442        0.00000162
     231         -1.038961        1.000000        0.00000864        0.00002266        0.00000249
     232         -1.038553        1.000000        0.00000467        0.00001347        0.00000150
     233         -1.038476        1.000000        0.00000977        0.00002546        0.00000291
     234         -1.038152        1.000000        0.00000132        0.00000480        0.00000051
     235         -1.038041        1.000000        0.00000020        0.00000077        0.00000007
     236         -1.036855        1.000000        0.00001264        0.00003454        0.00000386
     237         -1.036488        1.000000        0.00001088        0.00002901        0.00000339
     238         -1.036186        1.000000        0.00000186        0.00000515        0.00000053
     239         -1.036068        1.000000        0.00000121        0.00000415        0.00000054
     240         -1.035757        1.000000        0.00001185        0.00003266        0.00000344
     241         -1.035291        1.000000        0.00001608        0.00004039        0.00000454
     242         -1.035048        1.000000        0.00000174        0.00000590        0.00000080
     243         -1.035000        1.000000        0.00000138        0.00000580        0.00000055
     244         -1.034454        1.000000        0.00000365        0.00000906        0.00000108
     245         -1.034219        1.000000        0.00000602        0.00001704        0.00000210
     246         -1.033874        1.000000        0.00001263        0.00003178        0.00000328
     247         -1.033507        1.000000        0.00000086        0.00000230        0.00000027
     248         -1.033219        1.000000        0.00001108        0.00002903        0.00000317
     249         -1.033056        1.000000        0.00000539        0.00001436        0.00000149
     250         -1.032307        1.000000        0.00000773        0.00001965        0.00000213
     251         -1.031324        1.000000        0.00002777        0.00007306        0.00000748
     252         -1.031144        1.000000        0.00000606        0.00002097        0.00000229
     253         -1.030643        1.000000        0.00000579        0.00002377        0.00000263
     254         -1.030284        1.000000        0.00000599        0.00001957        0.00000205
     255         -1.030062        1.000000        0.00000302        0.00000963        0.00000098
     256         -1.029818        1.000000        0.00000329        0.00001606        0.00000146
     257         -1.028552        1.000000        0.00000043        0.00000214        0.00000015
     258         -1.027578        1.000000        0.00000666        0.00002055        0.00000201
     259         -1.027121        1.000000        0.00000327        0.00001101        0.00000118
     260         -1.026880        1.000000        0.00001685        0.00005118        0.00000532
     261         -1.026226        1.000000        0.00000207        0.00000914        0.00000081
     262         -1.025765        1.000000        0.00000600        0.00001780        0.00000191
     263         -1.025299        1.000000        0.00000154        0.00000409        0.00000045
     264         -1.025158        1.000000        0.00006328        0.00016641        0.00001854
     265         -1.025007        1.000000        0.00004874        0.00014899        0.00001612
     266         -1.024422        1.000000        0.00000625        0.00002701        0.00000278
     267         -1.023793        1.000000        0.00000424        0.00001317        0.00000142
     268         -1.023594        1.000000        0.00031292        0.00082442        0.00009258
     269         -1.023069        1.000000        0.00001439        0.00007406        0.00000747
     270         -1.022603        1.000000        0.00000602        0.00003070        0.00000309
     271         -1.022074        1.000000        0.00000298        0.00001424        0.00000142
     272         -1.021695        1.000000        0.00000475        0.00001550        0.00000164
     273         -1.021372        1.000000        0.00000025        0.00000072        0.00000007
     274         -1.021076        1.000000        0.00001757        0.00005619        0.00000532
     275         -1.019492        1.000000        0.00000587        0.00001610        0.00000164
     276         -1.018003        1.000000        0.00000012        0.00000051        0.00000005
     277         -1.016408        1.000000        0.00000242        0.00001302        0.00000087
     278         -1.016278        1.000000        0.00000042        0.00000231        0.00000018
     279         -1.015338        1.000000        0.00000031        0.00000217        0.00000012
     280         -1.013851        1.000000        0.00000001        0.00000007        0.00000001
     281         -1.010223        1.000000        0.00000238        0.00001055        0.00000085
     282         -1.009666        1.000000        0.00000000        0.00000000        0.00000000
     283         -1.007726        1.000000        0.00002140        0.00009846        0.00001162
     284         -1.007300        1.000000        0.00000229        0.00001093        0.00000121
     285         -1.006916        1.000000        0.00000001        0.00000004        0.00000000
     286         -0.889442        1.000000        0.40499979        0.02038964        0.00041354
     287         -0.869424        1.000000        0.42417806        0.04102551        0.00149435
     288         -0.867225        1.000000        0.42815558        0.04035274        0.00155349
     289         -0.864755        1.000000        0.41949787        0.05591229        0.00127229
     290         -0.860947        1.000000        0.42462862        0.05477015        0.00124874
     291         -0.846899        1.000000        0.43114292        0.05924347        0.00202873
     292         -0.844423        1.000000        0.43485773        0.05980405        0.00197326
     293         -0.843782        1.000000        0.43498207        0.05947960        0.00196438
     294         -0.840445        1.000000        0.43796408        0.05975879        0.00202383
     295         -0.821748        1.000000        0.46936729        0.03856492        0.00464555
     296         -0.818927        1.000000        0.47496961        0.03867474        0.00487681
     297         -0.814033        1.000000        0.58404931        0.01438325        0.00611021
     298         -0.808071        1.000000        0.46928868        0.03342906        0.00339470
     299         -0.807076        1.000000        0.46732861        0.03405424        0.00349116
     300         -0.806003        1.000000        0.46369004        0.03774439        0.00334749
     301         -0.805433        1.000000        0.47713207        0.03287579        0.00385371
     302         -0.803208        1.000000        0.47014429        0.03749270        0.00337293
     303         -0.802271        1.000000        0.46420209        0.03604183        0.00255513
     304         -0.801014        1.000000        0.46264090        0.03733423        0.00323853
     305         -0.800419        1.000000        0.46676920        0.04112293        0.00317569
     306         -0.800163        1.000000        0.46524849        0.03642907        0.00321924
     307         -0.798966        1.000000        0.46144929        0.04002813        0.00310238