# Projected DOS for list 242 of 1 atoms, at iteration step i = 0, E(Fermi) =    -0.245567 a.u.
#     MO Eigenvalue [a.u.]      Occupation                 s                 p                 d
       1         -3.122063        1.000000        0.00012014        0.00010438        0.00000711
       2         -3.121278        1.000000        0.00000448        0.00000522        0.00000186
       3         -3.121021        1.000000        0.00000515        0.00008659        0.00001450
       4         -3.120578        1.000000        0.00000181        0.00001753        0.00000344
       5         -3.120271        1.000000        0.00000730        0.00002630        0.00000190
       6         -3.119857        1.000000        0.00000050        0.00000607        0.00000069
       7         -3.119652        1.000000        0.00000373        0.00001557        0.00000241
       8         -3.119624        1.000000        0.00001203        0.00006870        0.00000728
       9         -3.119219        1.000000        0.00000788        0.00001282        0.00000116
      10         -3.119023        1.000000        0.00001567        0.00009849        0.00000561
      11         -3.118913        1.000000        0.00001986        0.00007781        0.00000808
      12         -3.118874        1.000000        0.00000410        0.00000644        0.00000069
      13         -3.118317        1.000000        0.00001102        0.00002248        0.00000180
      14         -3.118249        1.000000        0.00010279        0.00027089        0.00003076
      15         -3.117895        1.000000        0.00003288        0.00004208        0.00000605
      16         -3.117383        1.000000        0.00000208        0.00000930        0.00000049
      17         -3.117165        1.000000        0.00003052        0.00002920        0.00000203
      18         -3.116815        1.000000        0.00029600        0.00018161        0.00000926
      19         -3.116436        1.000000        0.00055949        0.00065159        0.00002775
      20         -3.116021        1.000000        0.00510335        0.00828547        0.00040857
      21         -3.115852        1.000000        0.00006892        0.00005579        0.00000681
      22         -3.115668        1.000000        0.00001385        0.00012344        0.00001536
      23         -3.115368        1.000000        0.00031639        0.00587067        0.00116601
      24         -3.115339        1.000000        0.00003491        0.00042358        0.00009107
      25         -3.115041        1.000000        0.00000160        0.00003462        0.00000658
      26         -3.114366        1.000000        0.00002039        0.00043533        0.00007561
      27         -3.113951        1.000000        0.00000017        0.00000100        0.00000009
      28         -3.113764        1.000000        0.00002632        0.00014740        0.00001565
      29         -3.112534        1.000000        0.00000002        0.00000037        0.00000012
      30         -3.111679        1.000000        0.00147164        0.00525529        0.00058960
      31         -1.784233        1.000000        0.00005775        0.00014402        0.00000712
      32         -1.782870        1.000000        0.00001601        0.00004683        0.00000487
      33         -1.782324        1.000000        0.00000811        0.00004571        0.00001625
      34         -1.782130        1.000000        0.00000532        0.00001983        0.00000779
      35         -1.781736        1.000000        0.00000023        0.00000177        0.00000050
      36         -1.781230        1.000000        0.00000069        0.00001642        0.00001289
      37         -1.780847        1.000000        0.00019246        0.00049097        0.00002567
      38         -1.780487        1.000000        0.00000624        0.00004542        0.00001107
      39         -1.780184        1.000000        0.00000429        0.00013629        0.00008798
      40         -1.779550        1.000000        0.00006909        0.00017400        0.00000970
      41         -1.779259        1.000000        0.00076997        0.00188835        0.00015861
      42         -1.778921        1.000000        0.00005831        0.00012706        0.00000745
      43         -1.778390        1.000000        0.00000269        0.00008824        0.00005944
      44         -1.778140        1.000000        0.00000318        0.00004675        0.00002067
      45         -1.777912        1.000000        0.00026899        0.00080570        0.00011167
      46         -1.777514        1.000000        0.00000042        0.00013565        0.00005491
      47         -1.777362        1.000000        0.00000865        0.00011046        0.00005376
      48         -1.776787        1.000000        0.00021092        0.00063730        0.00009963
      49         -1.776537        1.000000        0.00000403        0.00022680        0.00009221
      50         -1.776457        1.000000        0.00019874        0.00051178        0.00002905
      51         -1.776029        1.000000        0.00044719        0.00103829        0.00005495
      52         -1.774038        1.000000        0.00001495        0.00014352        0.00004981
      53         -1.773797        1.000000        0.00004397        0.00010010        0.00001100
      54         -1.773665        1.000000        0.00008250        0.00029529        0.00008077
      55         -1.772725        1.000000        0.00000178        0.00000870        0.00000187
      56         -1.772546        1.000000        0.00005480        0.00009510        0.00001297
      57         -1.772041        1.000000        0.00004719        0.00008552        0.00001194
      58         -1.771662        1.000000        0.00000120        0.00003530        0.00001473
      59         -1.771364        1.000000        0.00002559        0.00007811        0.00001852
      60         -1.770813        1.000000        0.00002450        0.00003930        0.00000479
      61         -1.770640        1.000000        0.00009865        0.00022435        0.00002383
      62         -1.770449        1.000000        0.00000058        0.00000979        0.00001606
      63         -1.770188        1.000000        0.00000909        0.00006015        0.00001766
      64         -1.770126        1.000000        0.00017373        0.00034880        0.00002940
      65         -1.769991        1.000000        0.00003681        0.00008742        0.00000651
      66         -1.769845        1.000000        0.00000644        0.00002784        0.00000490
      67         -1.769763        1.000000        0.00000018        0.00002334        0.00001166
      68         -1.769661        1.000000        0.00000375        0.00000656        0.00000502
      69         -1.769465        1.000000        0.00001371        0.00016363        0.00005408
      70         -1.769351        1.000000        0.00004405        0.00023800        0.00010908
      71         -1.769328        1.000000        0.00027423        0.00059045        0.00005212
      72         -1.769216        1.000000        0.00001042        0.00004101        0.00001895
      73         -1.769129        1.000000        0.00046421        0.00085893        0.00005658
      74         -1.769070        1.000000        0.00000063        0.00009272        0.00004807
      75         -1.768941        1.000000        0.00013335        0.00030681        0.00003175
      76         -1.768822        1.000000        0.00012551        0.00037053        0.00010368
      77         -1.768707        1.000000        0.00000089        0.00018190        0.00007252
      78         -1.768585        1.000000        0.00002024        0.00015472        0.00003097
      79         -1.768439        1.000000        0.00005007        0.00023340        0.00006967
      80         -1.768329        1.000000        0.00002593        0.00014908        0.00005967
      81         -1.768089        1.000000        0.00001656        0.00009659        0.00004354
      82         -1.767883        1.000000        0.00011613        0.00020080        0.00001386
      83         -1.767662        1.000000        0.00056503        0.00142243        0.00022773
      84         -1.767495        1.000000        0.00004949        0.00010380        0.00001991
      85         -1.767311        1.000000        0.00001562        0.00025599        0.00013991
      86         -1.767266        1.000000        0.00001677        0.00008094        0.00005252
      87         -1.767060        1.000000        0.00005909        0.00051097        0.00022189
      88         -1.767025        1.000000        0.00001286        0.00012901        0.00006891
      89         -1.766872        1.000000        0.00000043        0.00009841        0.00004965
      90         -1.766524        1.000000        0.00001349        0.00158451        0.00072816
      91         -1.766405        1.000000        0.00000469        0.00003331        0.00001356
      92         -1.766254        1.000000        0.00000213        0.00121972        0.00057902
      93         -1.766123        1.000000        0.00000902        0.00015511        0.00008033
      94         -1.765857        1.000000        0.00000269        0.00053047        0.00025977
      95         -1.765515        1.000000        0.00000032        0.00003844        0.00002069
      96         -1.765181        1.000000        0.00001674        0.00071588        0.00026185
      97         -1.765105        1.000000        0.00006900        0.00041992        0.00013321
      98         -1.764967        1.000000        0.00000520        0.00009372        0.00003562
      99         -1.764710        1.000000        0.00000541        0.00020569        0.00009703
     100         -1.764440        1.000000        0.00006514        0.00013212        0.00003621
     101         -1.764248        1.000000        0.00002725        0.00018944        0.00006885
     102         -1.763945        1.000000        0.00039300        0.00095449        0.00014339
     103         -1.763804        1.000000        0.00006542        0.00150921        0.00056553
     104         -1.763351        1.000000        0.00003263        0.00020364        0.00009493
     105         -1.763205        1.000000        0.00005908        0.00012102        0.00001893
     106         -1.763107        1.000000        0.00002796        0.00037513        0.00025847
     107         -1.762531        1.000000        0.00002652        0.00008035        0.00003268
     108         -1.762343        1.000000        0.00004211        0.00039913        0.00014792
     109         -1.761453        1.000000        0.00001761        0.00012123        0.00002584
     110         -1.760969        1.000000        0.00000108        0.00009155        0.00004655
     111         -1.760481        1.000000        0.00000652        0.00052855        0.00032606
     112         -1.760009        1.000000        0.00000243        0.00005062        0.00002393
     113         -1.759531        1.000000        0.00000145        0.00007251        0.00008299
     114         -1.759105        1.000000        0.00004038        0.00041485        0.00016932
     115         -1.758777        1.000000        0.00000021        0.00003800        0.00002628
     116         -1.757462        1.000000        0.00000207        0.00013355        0.00008372
     117         -1.756221        1.000000        0.00000354        0.00037153        0.00016864
     118         -1.755333        1.000000        0.00000623        0.00038306        0.00023917
     119         -1.754385        1.000000        0.00000272        0.00003015        0.00005979
     120         -1.752742        1.000000        0.00000462        0.00001574        0.00003661
     121         -1.131181        1.000000        0.00000000        0.00000000        0.00000000
     122         -1.128658        1.000000        0.00000000        0.00000000        0.00000000
     123         -1.128000        1.000000        0.00000000        0.00000000        0.00000000
     124         -1.126427        1.000000        0.00000000        0.00000000        0.00000000
     125         -1.120469        1.000000        0.00000000        0.00000001        0.00000000
     126         -1.119202        1.000000        0.00000000        0.00000001        0.00000000
     127         -1.117081        1.000000        0.00000000        0.00000001        0.00000000
     128         -1.116156        1.000000        0.00000000        0.00000002        0.00000000
     129         -1.115054        1.000000        0.00000000        0.00000000        0.00000000
     130         -1.111818        1.000000        0.00000000        0.00000000        0.00000000
     131         -1.111610        1.000000        0.00000000        0.00000000        0.00000000
     132         -1.110976        1.000000        0.00000000        0.00000000        0.00000000
     133         -1.109888        1.000000        0.00000000        0.00000000        0.00000000
     134         -1.108601        1.000000        0.00000000        0.00000000        0.00000000
     135         -1.108036        1.000000        0.00000000        0.00000000        0.00000000
     136         -1.107349        1.000000        0.00000000        0.00000000        0.00000000
     137         -1.106797        1.000000        0.00000000        0.00000000        0.00000000
     138         -1.106077        1.000000        0.00000000        0.00000000        0.00000000
     139         -1.104162        1.000000        0.00000000        0.00000000        0.00000000
     140         -1.102892        1.000000        0.00000000        0.00000001        0.00000000
     141         -1.102196        1.000000        0.00000000        0.00000000        0.00000000
     142         -1.101581        1.000000        0.00000000        0.00000000        0.00000000
     143         -1.101215        1.000000        0.00000000        0.00000000        0.00000000
     144         -1.099602        1.000000        0.00000000        0.00000002        0.00000000
     145         -1.098107        1.000000        0.00000000        0.00000001        0.00000000
     146         -1.097450        1.000000        0.00000000        0.00000000        0.00000000
     147         -1.097046        1.000000        0.00000000        0.00000000        0.00000000
     148         -1.095795        1.000000        0.00000000        0.00000000        0.00000000
     149         -1.095192        1.000000        0.00000000        0.00000000        0.00000000
     150         -1.093515        1.000000        0.00000000        0.00000000        0.00000000
     151         -1.093123        1.000000        0.00000004        0.00000001        0.00000000
     152         -1.092614        1.000000        0.00000000        0.00000000        0.00000000
     153         -1.091821        1.000000        0.00000000        0.00000000        0.00000000
     154         -1.090761        1.000000        0.00000000        0.00000000        0.00000000
     155         -1.090597        1.000000        0.00000015        0.00000006        0.00000001
     156         -1.089544        1.000000        0.00000012        0.00000003        0.00000000
     157         -1.088154        1.000000        0.00000008        0.00000002        0.00000000
     158         -1.086960        1.000000        0.00000001        0.00000000        0.00000000
     159         -1.086718        1.000000        0.00000000        0.00000000        0.00000000
     160         -1.085525        1.000000        0.00000001        0.00000001        0.00000000
     161         -1.084219        1.000000        0.00000000        0.00000000        0.00000000
     162         -1.082734        1.000000        0.00000000        0.00000000        0.00000000
     163         -1.082381        1.000000        0.00000000        0.00000001        0.00000000
     164         -1.080807        1.000000        0.00000000        0.00000000        0.00000000
     165         -1.080293        1.000000        0.00000000        0.00000001        0.00000000
     166         -1.079453        1.000000        0.00000000        0.00000000        0.00000000
     167         -1.078246        1.000000        0.00000000        0.00000000        0.00000000
     168         -1.077774        1.000000        0.00000000        0.00000000        0.00000000
     169         -1.077143        1.000000        0.00000000        0.00000000        0.00000000
     170         -1.076426        1.000000        0.00000000        0.00000000        0.00000000
     171         -1.076145        1.000000        0.00000000        0.00000000        0.00000000
     172         -1.074526        1.000000        0.00000001        0.00000001        0.00000000
     173         -1.074368        1.000000        0.00000000        0.00000001        0.00000000
     174         -1.073652        1.000000        0.00000000        0.00000000        0.00000000
     175         -1.072808        1.000000        0.00000000        0.00000000        0.00000000
     176         -1.072152        1.000000        0.00000000        0.00000000        0.00000000
     177         -1.071192        1.000000        0.00000000        0.00000000        0.00000000
     178         -1.070444        1.000000        0.00000000        0.00000001        0.00000000
     179         -1.070141        1.000000        0.00000000        0.00000000        0.00000000
     180         -1.069416        1.000000        0.00000000        0.00000001        0.00000000
     181         -1.069179        1.000000        0.00000000        0.00000000        0.00000000
     182         -1.067610        1.000000        0.00000000        0.00000000        0.00000000
     183         -1.066240        1.000000        0.00000000        0.00000002        0.00000000
     184         -1.065124        1.000000        0.00000000        0.00000000        0.00000000
     185         -1.064565        1.000000        0.00000000        0.00000001        0.00000000
     186         -1.063575        1.000000        0.00000000        0.00000000        0.00000000
     187         -1.062901        1.000000        0.00000000        0.00000000        0.00000000
     188         -1.062274        1.000000        0.00000000        0.00000000        0.00000000
     189         -1.061481        1.000000        0.00000000        0.00000001        0.00000000
     190         -1.061312        1.000000        0.00000001        0.00000002        0.00000000
     191         -1.060592        1.000000        0.00000000        0.00000000        0.00000000
     192         -1.059297        1.000000        0.00000000        0.00000000        0.00000000
     193         -1.058643        1.000000        0.00000000        0.00000001        0.00000000
     194         -1.058262        1.000000        0.00000001        0.00000010        0.00000001
     195         -1.057127        1.000000        0.00000001        0.00000002        0.00000000
     196         -1.056224        1.000000        0.00000001        0.00000011        0.00000001
     197         -1.056050        1.000000        0.00000000        0.00000002        0.00000000
     198         -1.054881        1.000000        0.00000000        0.00000000        0.00000000
     199         -1.054669        1.000000        0.00000000        0.00000000        0.00000000
     200         -1.053605        1.000000        0.00000000        0.00000000        0.00000000
     201         -1.053457        1.000000        0.00000000        0.00000001        0.00000000
     202         -1.052589        1.000000        0.00000000        0.00000001        0.00000000
     203         -1.052089        1.000000        0.00000001        0.00000016        0.00000002
     204         -1.051299        1.000000        0.00000001        0.00000018        0.00000002
     205         -1.050676        1.000000        0.00000001        0.00000028        0.00000003
     206         -1.050307        1.000000        0.00000000        0.00000003        0.00000000
     207         -1.049921        1.000000        0.00000002        0.00000048        0.00000006
     208         -1.049485        1.000000        0.00000000        0.00000008        0.00000001
     209         -1.049126        1.000000        0.00000000        0.00000003        0.00000000
     210         -1.048445        1.000000        0.00000000        0.00000006        0.00000001
     211         -1.048201        1.000000        0.00000000        0.00000000        0.00000000
     212         -1.047911        1.000000        0.00000000        0.00000003        0.00000000
     213         -1.047620        1.000000        0.00000000        0.00000003        0.00000000
     214         -1.046931        1.000000        0.00000001        0.00000014        0.00000002
     215         -1.046733        1.000000        0.00000000        0.00000000        0.00000000
     216         -1.046634        1.000000        0.00000001        0.00000024        0.00000003
     217         -1.045930        1.000000        0.00000000        0.00000004        0.00000000
     218         -1.045069        1.000000        0.00000000        0.00000003        0.00000000
     219         -1.044350        1.000000        0.00000000        0.00000003        0.00000000
     220         -1.043623        1.000000        0.00000001        0.00000010        0.00000001
     221         -1.043421        1.000000        0.00000000        0.00000005        0.00000001
     222         -1.042778        1.000000        0.00000000        0.00000000        0.00000000
     223         -1.042701        1.000000        0.00000000        0.00000001        0.00000000
     224         -1.042424        1.000000        0.00000000        0.00000006        0.00000001
     225         -1.041682        1.000000        0.00000000        0.00000000        0.00000000
     226         -1.041498        1.000000        0.00000001        0.00000028        0.00000003
     227         -1.040837        1.000000        0.00000000        0.00000000        0.00000000
     228         -1.040496        1.000000        0.00000000        0.00000004        0.00000000
     229         -1.040151        1.000000        0.00000000        0.00000002        0.00000000
     230         -1.039686        1.000000        0.00000000        0.00000001        0.00000000
     231         -1.038961        1.000000        0.00000000        0.00000000        0.00000000
     232         -1.038553        1.000000        0.00000000        0.00000000        0.00000000
     233         -1.038476        1.000000        0.00000000        0.00000000        0.00000000
     234         -1.038152        1.000000        0.00000000        0.00000001        0.00000000
     235         -1.038041        1.000000        0.00000000        0.00000000        0.00000000
     236         -1.036855        1.000000        0.00000000        0.00000001        0.00000000
     237         -1.036488        1.000000        0.00000000        0.00000001        0.00000000
     238         -1.036186        1.000000        0.00000000        0.00000000        0.00000000
     239         -1.036068        1.000000        0.00000000        0.00000000        0.00000000
     240         -1.035757        1.000000        0.00000000        0.00000000        0.00000000
     241         -1.035291        1.000000        0.00000000        0.00000000        0.00000000
     242         -1.035048        1.000000        0.00000000        0.00000000        0.00000000
     243         -1.035000        1.000000        0.00000000        0.00000000        0.00000000
     244         -1.034454        1.000000        0.00000000        0.00000000        0.00000000
     245         -1.034219        1.000000        0.00000000        0.00000000        0.00000000
     246         -1.033874        1.000000        0.00000000        0.00000000        0.00000000
     247         -1.033507        1.000000        0.00000000        0.00000000        0.00000000
     248         -1.033219        1.000000        0.00000000        0.00000000        0.00000000
     249         -1.033056        1.000000        0.00000000        0.00000000        0.00000000
     250         -1.032307        1.000000        0.00000000        0.00000000        0.00000000
     251         -1.031324        1.000000        0.00000000        0.00000000        0.00000000
     252         -1.031144        1.000000        0.00000000        0.00000004        0.00000000
     253         -1.030643        1.000000        0.00000001        0.00000009        0.00000001
     254         -1.030284        1.000000        0.00000000        0.00000001        0.00000000
     255         -1.030062        1.000000        0.00000000        0.00000001        0.00000000
     256         -1.029818        1.000000        0.00000000        0.00000002        0.00000000
     257         -1.028552        1.000000        0.00000000        0.00000001        0.00000000
     258         -1.027578        1.000000        0.00000000        0.00000000        0.00000000
     259         -1.027121        1.000000        0.00000000        0.00000002        0.00000000
     260         -1.026880        1.000000        0.00000001        0.00000012        0.00000001
     261         -1.026226        1.000000        0.00000000        0.00000004        0.00000000
     262         -1.025765        1.000000        0.00000000        0.00000003        0.00000000
     263         -1.025299        1.000000        0.00000000        0.00000000        0.00000000
     264         -1.025158        1.000000        0.00000000        0.00000002        0.00000000
     265         -1.025007        1.000000        0.00000001        0.00000020        0.00000002
     266         -1.024422        1.000000        0.00000000        0.00000007        0.00000001
     267         -1.023793        1.000000        0.00000000        0.00000002        0.00000000
     268         -1.023594        1.000000        0.00000000        0.00000005        0.00000001
     269         -1.023069        1.000000        0.00000002        0.00000035        0.00000003
     270         -1.022603        1.000000        0.00000001        0.00000015        0.00000001
     271         -1.022074        1.000000        0.00000000        0.00000006        0.00000001
     272         -1.021695        1.000000        0.00000000        0.00000004        0.00000000
     273         -1.021372        1.000000        0.00000000        0.00000000        0.00000000
     274         -1.021076        1.000000        0.00000000        0.00000002        0.00000000
     275         -1.019492        1.000000        0.00000000        0.00000000        0.00000000
     276         -1.018003        1.000000        0.00000000        0.00000000        0.00000000
     277         -1.016408        1.000000        0.00000000        0.00000000        0.00000000
     278         -1.016278        1.000000        0.00000000        0.00000000        0.00000000
     279         -1.015338        1.000000        0.00000000        0.00000000        0.00000000
     280         -1.013851        1.000000        0.00000000        0.00000000        0.00000000
     281         -1.010223        1.000000        0.00000000        0.00000001        0.00000000
     282         -1.009666        1.000000        0.00000000        0.00000000        0.00000000
     283         -1.007726        1.000000        0.00000002        0.00000012        0.00000001
     284         -1.007300        1.000000        0.00000000        0.00000001        0.00000000
     285         -1.006916        1.000000        0.00000000        0.00000000        0.00000000
     286         -0.889442        1.000000        0.00430713        0.00022819        0.00000233
     287         -0.869424        1.000000        0.01856707        0.00105785        0.00000494
     288         -0.867225        1.000000        0.00306404        0.00067004        0.00004479
     289         -0.864755        1.000000        0.00631873        0.00033846        0.00001081
     290         -0.860947        1.000000        0.00005475        0.00060240        0.00001571
     291         -0.846899        1.000000        0.00552743        0.00088404        0.00003712
     292         -0.844423        1.000000        0.00745842        0.00185372        0.00007457
     293         -0.843782        1.000000        0.02076210        0.00180140        0.00003131
     294         -0.840445        1.000000        0.00121905        0.00020494        0.00004236
     295         -0.821748        1.000000        0.00193144        0.00078098        0.00007718
     296         -0.818927        1.000000        0.01170805        0.00046753        0.00007529
     297         -0.814033        1.000000        0.00212463        0.00010391        0.00004428
     298         -0.808071        1.000000        0.00025304        0.00003064        0.00005128
     299         -0.807076        1.000000        0.00035391        0.00086567        0.00011555
     300         -0.806003        1.000000        0.00418917        0.00105102        0.00006746
     301         -0.805433        1.000000        0.03254348        0.00022362        0.00006460
     302         -0.803208        1.000000        0.00589382        0.00080018        0.00003733
     303         -0.802271        1.000000        0.00965886        0.00020812        0.00003004
     304         -0.801014        1.000000        0.00003440        0.00008997        0.00001262
     305         -0.800419        1.000000        0.00505641        0.00046568        0.00003638
     306         -0.800163        1.000000        0.00001561        0.00052435        0.00005368
     307         -0.798966        1.000000        0.00296763        0.00108652        0.00004548