# Projected DOS for list 157 of 1 atoms, at iteration step i = 0, E(Fermi) =    -0.245567 a.u.
#     MO Eigenvalue [a.u.]      Occupation                 s                 p                 d
       1         -3.122063        1.000000        0.00000000        0.00000000        0.00000000
       2         -3.121278        1.000000        0.00000000        0.00000000        0.00000000
       3         -3.121021        1.000000        0.00000000        0.00000000        0.00000000
       4         -3.120578        1.000000        0.00000000        0.00000000        0.00000000
       5         -3.120271        1.000000        0.00000000        0.00000000        0.00000000
       6         -3.119857        1.000000        0.00000000        0.00000000        0.00000000
       7         -3.119652        1.000000        0.00000000        0.00000000        0.00000000
       8         -3.119624        1.000000        0.00000000        0.00000000        0.00000000
       9         -3.119219        1.000000        0.00000000        0.00000000        0.00000000
      10         -3.119023        1.000000        0.00000000        0.00000000        0.00000000
      11         -3.118913        1.000000        0.00000000        0.00000000        0.00000000
      12         -3.118874        1.000000        0.00000000        0.00000000        0.00000000
      13         -3.118317        1.000000        0.00000000        0.00000000        0.00000000
      14         -3.118249        1.000000        0.00000000        0.00000000        0.00000000
      15         -3.117895        1.000000        0.00000000        0.00000000        0.00000000
      16         -3.117383        1.000000        0.00000000        0.00000000        0.00000000
      17         -3.117165        1.000000        0.00000000        0.00000000        0.00000000
      18         -3.116815        1.000000        0.00000000        0.00000000        0.00000000
      19         -3.116436        1.000000        0.00000000        0.00000000        0.00000000
      20         -3.116021        1.000000        0.00000000        0.00000000        0.00000000
      21         -3.115852        1.000000        0.00000000        0.00000000        0.00000000
      22         -3.115668        1.000000        0.00000000        0.00000000        0.00000000
      23         -3.115368        1.000000        0.00000000        0.00000000        0.00000000
      24         -3.115339        1.000000        0.00000000        0.00000000        0.00000000
      25         -3.115041        1.000000        0.00000000        0.00000000        0.00000000
      26         -3.114366        1.000000        0.00000000        0.00000000        0.00000000
      27         -3.113951        1.000000        0.00000000        0.00000000        0.00000000
      28         -3.113764        1.000000        0.00000000        0.00000000        0.00000000
      29         -3.112534        1.000000        0.00000000        0.00000000        0.00000000
      30         -3.111679        1.000000        0.00000000        0.00000000        0.00000000
      31         -1.784233        1.000000        0.00000000        0.00000000        0.00000000
      32         -1.782870        1.000000        0.00000000        0.00000000        0.00000000
      33         -1.782324        1.000000        0.00000000        0.00000000        0.00000000
      34         -1.782130        1.000000        0.00000000        0.00000000        0.00000000
      35         -1.781736        1.000000        0.00000000        0.00000000        0.00000000
      36         -1.781230        1.000000        0.00000000        0.00000000        0.00000000
      37         -1.780847        1.000000        0.00000000        0.00000000        0.00000000
      38         -1.780487        1.000000        0.00000000        0.00000000        0.00000000
      39         -1.780184        1.000000        0.00000000        0.00000000        0.00000000
      40         -1.779550        1.000000        0.00000000        0.00000000        0.00000000
      41         -1.779259        1.000000        0.00000000        0.00000000        0.00000000
      42         -1.778921        1.000000        0.00000000        0.00000000        0.00000000
      43         -1.778390        1.000000        0.00000000        0.00000000        0.00000000
      44         -1.778140        1.000000        0.00000000        0.00000000        0.00000000
      45         -1.777912        1.000000        0.00000000        0.00000000        0.00000000
      46         -1.777514        1.000000        0.00000000        0.00000000        0.00000000
      47         -1.777362        1.000000        0.00000000        0.00000000        0.00000000
      48         -1.776787        1.000000        0.00000000        0.00000000        0.00000000
      49         -1.776537        1.000000        0.00000000        0.00000000        0.00000000
      50         -1.776457        1.000000        0.00000000        0.00000000        0.00000000
      51         -1.776029        1.000000        0.00000000        0.00000000        0.00000000
      52         -1.774038        1.000000        0.00000000        0.00000000        0.00000000
      53         -1.773797        1.000000        0.00000000        0.00000000        0.00000000
      54         -1.773665        1.000000        0.00000000        0.00000000        0.00000000
      55         -1.772725        1.000000        0.00000000        0.00000000        0.00000000
      56         -1.772546        1.000000        0.00000000        0.00000000        0.00000000
      57         -1.772041        1.000000        0.00000000        0.00000000        0.00000000
      58         -1.771662        1.000000        0.00000000        0.00000000        0.00000000
      59         -1.771364        1.000000        0.00000000        0.00000000        0.00000000
      60         -1.770813        1.000000        0.00000000        0.00000000        0.00000000
      61         -1.770640        1.000000        0.00000000        0.00000000        0.00000000
      62         -1.770449        1.000000        0.00000000        0.00000000        0.00000000
      63         -1.770188        1.000000        0.00000000        0.00000000        0.00000000
      64         -1.770126        1.000000        0.00000000        0.00000000        0.00000000
      65         -1.769991        1.000000        0.00000000        0.00000000        0.00000000
      66         -1.769845        1.000000        0.00000000        0.00000000        0.00000000
      67         -1.769763        1.000000        0.00000000        0.00000000        0.00000000
      68         -1.769661        1.000000        0.00000000        0.00000000        0.00000000
      69         -1.769465        1.000000        0.00000000        0.00000000        0.00000000
      70         -1.769351        1.000000        0.00000000        0.00000000        0.00000000
      71         -1.769328        1.000000        0.00000000        0.00000000        0.00000000
      72         -1.769216        1.000000        0.00000000        0.00000000        0.00000000
      73         -1.769129        1.000000        0.00000000        0.00000000        0.00000000
      74         -1.769070        1.000000        0.00000000        0.00000000        0.00000000
      75         -1.768941        1.000000        0.00000000        0.00000000        0.00000000
      76         -1.768822        1.000000        0.00000000        0.00000000        0.00000000
      77         -1.768707        1.000000        0.00000000        0.00000000        0.00000000
      78         -1.768585        1.000000        0.00000000        0.00000000        0.00000000
      79         -1.768439        1.000000        0.00000000        0.00000000        0.00000000
      80         -1.768329        1.000000        0.00000000        0.00000000        0.00000000
      81         -1.768089        1.000000        0.00000000        0.00000000        0.00000000
      82         -1.767883        1.000000        0.00000000        0.00000000        0.00000000
      83         -1.767662        1.000000        0.00000000        0.00000000        0.00000000
      84         -1.767495        1.000000        0.00000000        0.00000000        0.00000000
      85         -1.767311        1.000000        0.00000000        0.00000000        0.00000000
      86         -1.767266        1.000000        0.00000000        0.00000000        0.00000000
      87         -1.767060        1.000000        0.00000000        0.00000000        0.00000000
      88         -1.767025        1.000000        0.00000000        0.00000000        0.00000000
      89         -1.766872        1.000000        0.00000000        0.00000000        0.00000000
      90         -1.766524        1.000000        0.00000000        0.00000000        0.00000000
      91         -1.766405        1.000000        0.00000000        0.00000000        0.00000000
      92         -1.766254        1.000000        0.00000000        0.00000000        0.00000000
      93         -1.766123        1.000000        0.00000000        0.00000000        0.00000000
      94         -1.765857        1.000000        0.00000000        0.00000000        0.00000000
      95         -1.765515        1.000000        0.00000000        0.00000000        0.00000000
      96         -1.765181        1.000000        0.00000000        0.00000000        0.00000000
      97         -1.765105        1.000000        0.00000000        0.00000000        0.00000000
      98         -1.764967        1.000000        0.00000000        0.00000000        0.00000000
      99         -1.764710        1.000000        0.00000000        0.00000000        0.00000000
     100         -1.764440        1.000000        0.00000000        0.00000000        0.00000000
     101         -1.764248        1.000000        0.00000000        0.00000000        0.00000000
     102         -1.763945        1.000000        0.00000000        0.00000000        0.00000000
     103         -1.763804        1.000000        0.00000000        0.00000000        0.00000000
     104         -1.763351        1.000000        0.00000000        0.00000000        0.00000000
     105         -1.763205        1.000000        0.00000000        0.00000000        0.00000000
     106         -1.763107        1.000000        0.00000000        0.00000000        0.00000000
     107         -1.762531        1.000000        0.00000000        0.00000000        0.00000000
     108         -1.762343        1.000000        0.00000000        0.00000000        0.00000000
     109         -1.761453        1.000000        0.00000000        0.00000000        0.00000000
     110         -1.760969        1.000000        0.00000000        0.00000000        0.00000000
     111         -1.760481        1.000000        0.00000000        0.00000000        0.00000000
     112         -1.760009        1.000000        0.00000000        0.00000000        0.00000000
     113         -1.759531        1.000000        0.00000000        0.00000000        0.00000000
     114         -1.759105        1.000000        0.00000000        0.00000000        0.00000000
     115         -1.758777        1.000000        0.00000000        0.00000000        0.00000000
     116         -1.757462        1.000000        0.00000000        0.00000000        0.00000000
     117         -1.756221        1.000000        0.00000000        0.00000000        0.00000000
     118         -1.755333        1.000000        0.00000000        0.00000000        0.00000000
     119         -1.754385        1.000000        0.00000000        0.00000000        0.00000000
     120         -1.752742        1.000000        0.00000000        0.00000000        0.00000000
     121         -1.131181        1.000000        0.00128143        0.00025421        0.00005111
     122         -1.128658        1.000000        0.00000546        0.00001928        0.00000761
     123         -1.128000        1.000000        0.00003223        0.00000156        0.00000378
     124         -1.126427        1.000000        0.00020570        0.00004421        0.00000904
     125         -1.120469        1.000000        0.00000111        0.00012126        0.00000039
     126         -1.119202        1.000000        0.00131800        0.00004447        0.00006325
     127         -1.117081        1.000000        0.00275087        0.00033424        0.00012549
     128         -1.116156        1.000000        0.00100420        0.00012321        0.00003820
     129         -1.115054        1.000000        0.00017898        0.00002072        0.00000151
     130         -1.111818        1.000000        0.00099224        0.00010316        0.00004353
     131         -1.111610        1.000000        0.00548962        0.00038743        0.00014522
     132         -1.110976        1.000000        0.00054546        0.00015392        0.00001869
     133         -1.109888        1.000000        0.00052405        0.00010282        0.00001355
     134         -1.108601        1.000000        0.00189862        0.00033322        0.00004421
     135         -1.108036        1.000000        0.00008611        0.00028786        0.00000866
     136         -1.107349        1.000000        0.01481227        0.00057420        0.00036102
     137         -1.106797        1.000000        0.00226990        0.00047823        0.00005127
     138         -1.106077        1.000000        0.00032299        0.00058918        0.00003736
     139         -1.104162        1.000000        0.00000027        0.00000441        0.00001294
     140         -1.102892        1.000000        0.00112454        0.00026760        0.00001887
     141         -1.102196        1.000000        0.00003172        0.00037224        0.00000789
     142         -1.101581        1.000000        0.00273649        0.00008171        0.00008826
     143         -1.101215        1.000000        0.00479141        0.00112675        0.00013484
     144         -1.099602        1.000000        0.00052742        0.00090787        0.00006570
     145         -1.098107        1.000000        0.00200628        0.00109207        0.00006072
     146         -1.097450        1.000000        0.00739073        0.00059365        0.00012603
     147         -1.097046        1.000000        0.00672933        0.00042715        0.00014600
     148         -1.095795        1.000000        0.01562226        0.00073847        0.00030001
     149         -1.095192        1.000000        0.00033399        0.00028775        0.00001443
     150         -1.093515        1.000000        0.00401023        0.00010405        0.00007072
     151         -1.093123        1.000000        0.00013051        0.00021564        0.00001805
     152         -1.092614        1.000000        0.00034016        0.00005191        0.00002275
     153         -1.091821        1.000000        0.00097578        0.00021414        0.00000770
     154         -1.090761        1.000000        0.00761077        0.00018496        0.00016247
     155         -1.090597        1.000000        0.00027580        0.00000652        0.00002295
     156         -1.089544        1.000000        0.00065538        0.00001991        0.00002084
     157         -1.088154        1.000000        0.00000625        0.00000627        0.00001124
     158         -1.086960        1.000000        0.00032793        0.00005140        0.00001925
     159         -1.086718        1.000000        0.00000466        0.00001463        0.00001059
     160         -1.085525        1.000000        0.00329108        0.00057806        0.00009219
     161         -1.084219        1.000000        0.00092325        0.00016174        0.00000832
     162         -1.082734        1.000000        0.00008666        0.00055319        0.00005170
     163         -1.082381        1.000000        0.00012121        0.00048792        0.00002219
     164         -1.080807        1.000000        0.00000514        0.00010397        0.00000704
     165         -1.080293        1.000000        0.00186359        0.00033887        0.00004521
     166         -1.079453        1.000000        0.00292683        0.00055533        0.00005371
     167         -1.078246        1.000000        0.00867624        0.00019842        0.00007228
     168         -1.077774        1.000000        0.00000015        0.00004503        0.00000831
     169         -1.077143        1.000000        0.00511517        0.00020458        0.00007257
     170         -1.076426        1.000000        0.00259460        0.00129954        0.00005672
     171         -1.076145        1.000000        0.00274138        0.00016724        0.00003866
     172         -1.074526        1.000000        0.00407303        0.00010726        0.00004439
     173         -1.074368        1.000000        0.00155588        0.00003279        0.00002910
     174         -1.073652        1.000000        0.00010858        0.00017608        0.00000319
     175         -1.072808        1.000000        0.00000468        0.00148330        0.00002118
     176         -1.072152        1.000000        0.00028263        0.00004437        0.00004072
     177         -1.071192        1.000000        0.00003419        0.00039497        0.00002323
     178         -1.070444        1.000000        0.00014074        0.00010177        0.00000891
     179         -1.070141        1.000000        0.00060725        0.00001860        0.00000547
     180         -1.069416        1.000000        0.00029497        0.00042468        0.00007239
     181         -1.069179        1.000000        0.00073092        0.00022664        0.00001258
     182         -1.067610        1.000000        0.00107197        0.00009357        0.00004280
     183         -1.066240        1.000000        0.00214050        0.00009095        0.00001279
     184         -1.065124        1.000000        0.00000124        0.00014235        0.00002077
     185         -1.064565        1.000000        0.00010677        0.00005032        0.00000263
     186         -1.063575        1.000000        0.00000228        0.00002756        0.00001063
     187         -1.062901        1.000000        0.00011175        0.00002417        0.00000565
     188         -1.062274        1.000000        0.00023485        0.00003044        0.00001794
     189         -1.061481        1.000000        0.00166498        0.00015039        0.00004075
     190         -1.061312        1.000000        0.01554477        0.00031711        0.00012369
     191         -1.060592        1.000000        0.00214139        0.00015302        0.00006868
     192         -1.059297        1.000000        0.01652729        0.00049782        0.00007351
     193         -1.058643        1.000000        0.00018674        0.00017939        0.00001293
     194         -1.058262        1.000000        0.00241489        0.00021087        0.00001820
     195         -1.057127        1.000000        0.00128487        0.00001767        0.00002319
     196         -1.056224        1.000000        0.00051504        0.00004431        0.00000385
     197         -1.056050        1.000000        0.00063818        0.00005048        0.00000414
     198         -1.054881        1.000000        0.00002570        0.00004310        0.00000405
     199         -1.054669        1.000000        0.00367047        0.00009681        0.00000717
     200         -1.053605        1.000000        0.00005235        0.00007041        0.00001209
     201         -1.053457        1.000000        0.00014655        0.00003339        0.00000242
     202         -1.052589        1.000000        0.00898957        0.00018923        0.00003020
     203         -1.052089        1.000000        0.00000305        0.00019906        0.00002655
     204         -1.051299        1.000000        0.00017811        0.00011355        0.00001170
     205         -1.050676        1.000000        0.00263433        0.00002663        0.00002561
     206         -1.050307        1.000000        0.00009331        0.00002075        0.00000666
     207         -1.049921        1.000000        0.00003036        0.00003062        0.00000177
     208         -1.049485        1.000000        0.00126821        0.00003024        0.00002290
     209         -1.049126        1.000000        0.00065163        0.00003980        0.00004281
     210         -1.048445        1.000000        0.00012627        0.00003977        0.00000503
     211         -1.048201        1.000000        0.00692980        0.00007850        0.00002611
     212         -1.047911        1.000000        0.00365926        0.00005127        0.00002469
     213         -1.047620        1.000000        0.00230679        0.00012701        0.00000805
     214         -1.046931        1.000000        0.00067900        0.00000885        0.00000887
     215         -1.046733        1.000000        0.00012541        0.00001475        0.00001885
     216         -1.046634        1.000000        0.00066951        0.00002098        0.00001490
     217         -1.045930        1.000000        0.00127410        0.00005834        0.00003330
     218         -1.045069        1.000000        0.00013928        0.00000659        0.00001534
     219         -1.044350        1.000000        0.00063183        0.00005104        0.00002342
     220         -1.043623        1.000000        0.00067139        0.00002233        0.00000965
     221         -1.043421        1.000000        0.00040064        0.00001647        0.00000450
     222         -1.042778        1.000000        0.00696977        0.00021425        0.00004306
     223         -1.042701        1.000000        0.00002383        0.00002007        0.00000774
     224         -1.042424        1.000000        0.02050818        0.00035976        0.00008896
     225         -1.041682        1.000000        0.01930394        0.00048338        0.00009426
     226         -1.041498        1.000000        0.00552874        0.00007112        0.00003961
     227         -1.040837        1.000000        0.02039942        0.00035407        0.00005759
     228         -1.040496        1.000000        0.00190114        0.00006906        0.00002231
     229         -1.040151        1.000000        0.00335571        0.00004300        0.00001271
     230         -1.039686        1.000000        0.00289891        0.00003043        0.00000636
     231         -1.038961        1.000000        0.00006362        0.00013044        0.00008986
     232         -1.038553        1.000000        0.00005099        0.00000524        0.00000226
     233         -1.038476        1.000000        0.00015112        0.00003090        0.00002644
     234         -1.038152        1.000000        0.01013210        0.00020209        0.00007276
     235         -1.038041        1.000000        0.00121441        0.00016769        0.00010036
     236         -1.036855        1.000000        0.00080595        0.00001431        0.00000319
     237         -1.036488        1.000000        0.00305179        0.00017711        0.00008377
     238         -1.036186        1.000000        0.01117452        0.00008794        0.00002442
     239         -1.036068        1.000000        0.00155942        0.00001701        0.00002208
     240         -1.035757        1.000000        0.00224918        0.00001820        0.00001715
     241         -1.035291        1.000000        0.00115792        0.00002061        0.00000844
     242         -1.035048        1.000000        0.00123041        0.00003529        0.00001141
     243         -1.035000        1.000000        0.00070123        0.00000955        0.00000999
     244         -1.034454        1.000000        0.00204900        0.00001608        0.00000628
     245         -1.034219        1.000000        0.00075861        0.00002042        0.00001560
     246         -1.033874        1.000000        0.00616471        0.00012591        0.00002099
     247         -1.033507        1.000000        0.02350429        0.00019873        0.00017448
     248         -1.033219        1.000000        0.00037839        0.00001432        0.00000648
     249         -1.033056        1.000000        0.03039810        0.00031488        0.00008360
     250         -1.032307        1.000000        0.00000154        0.00001991        0.00001573
     251         -1.031324        1.000000        0.00389593        0.00007707        0.00004689
     252         -1.031144        1.000000        0.00087057        0.00009359        0.00004883
     253         -1.030643        1.000000        0.00370314        0.00015291        0.00001950
     254         -1.030284        1.000000        0.00640934        0.00009193        0.00006908
     255         -1.030062        1.000000        0.00000668        0.00007784        0.00006329
     256         -1.029818        1.000000        0.00505437        0.00004258        0.00000469
     257         -1.028552        1.000000        0.02843787        0.00031930        0.00011106
     258         -1.027578        1.000000        0.01487946        0.00013171        0.00002212
     259         -1.027121        1.000000        0.00036873        0.00002513        0.00000766
     260         -1.026880        1.000000        0.00901430        0.00034009        0.00009856
     261         -1.026226        1.000000        0.00653310        0.00006769        0.00002876
     262         -1.025765        1.000000        0.01850786        0.00012546        0.00005903
     263         -1.025299        1.000000        0.00110462        0.00000942        0.00000413
     264         -1.025158        1.000000        0.01349826        0.00023766        0.00006921
     265         -1.025007        1.000000        0.00274975        0.00009380        0.00003146
     266         -1.024422        1.000000        0.00486274        0.00012084        0.00004472
     267         -1.023793        1.000000        0.00238314        0.00001967        0.00001405
     268         -1.023594        1.000000        0.00016883        0.00000135        0.00000030
     269         -1.023069        1.000000        0.00047295        0.00004383        0.00001925
     270         -1.022603        1.000000        0.00000053        0.00000092        0.00000176
     271         -1.022074        1.000000        0.00088041        0.00001086        0.00000379
     272         -1.021695        1.000000        0.00006229        0.00000229        0.00000056
     273         -1.021372        1.000000        0.00067971        0.00000691        0.00000508
     274         -1.021076        1.000000        0.00025047        0.00000324        0.00000037
     275         -1.019492        1.000000        0.00007235        0.00002778        0.00001335
     276         -1.018003        1.000000        0.00002862        0.00000997        0.00001534
     277         -1.016408        1.000000        0.00000239        0.00000072        0.00000040
     278         -1.016278        1.000000        0.00028106        0.00002105        0.00001029
     279         -1.015338        1.000000        0.05145564        0.00135818        0.00053873
     280         -1.013851        1.000000        0.00027267        0.00000445        0.00000185
     281         -1.010223        1.000000        0.00009991        0.00000362        0.00000159
     282         -1.009666        1.000000        0.00000238        0.00000200        0.00000425
     283         -1.007726        1.000000        0.00013193        0.00001422        0.00000362
     284         -1.007300        1.000000        0.00052377        0.00008298        0.00002168
     285         -1.006916        1.000000        0.00000013        0.00000094        0.00000020
     286         -0.889442        1.000000        0.00000000        0.00000000        0.00000000
     287         -0.869424        1.000000        0.00000000        0.00000000        0.00000000
     288         -0.867225        1.000000        0.00000000        0.00000000        0.00000000
     289         -0.864755        1.000000        0.00000000        0.00000000        0.00000000
     290         -0.860947        1.000000        0.00000000        0.00000000        0.00000000
     291         -0.846899        1.000000        0.00000000        0.00000000        0.00000000
     292         -0.844423        1.000000        0.00000000        0.00000000        0.00000000
     293         -0.843782        1.000000        0.00000000        0.00000000        0.00000000
     294         -0.840445        1.000000        0.00000000        0.00000000        0.00000000
     295         -0.821748        1.000000        0.00000000        0.00000000        0.00000000
     296         -0.818927        1.000000        0.00000000        0.00000000        0.00000000
     297         -0.814033        1.000000        0.00000000        0.00000000        0.00000000
     298         -0.808071        1.000000        0.00000000        0.00000000        0.00000000
     299         -0.807076        1.000000        0.00000000        0.00000000        0.00000000
     300         -0.806003        1.000000        0.00000000        0.00000000        0.00000000
     301         -0.805433        1.000000        0.00000000        0.00000000        0.00000000
     302         -0.803208        1.000000        0.00000000        0.00000000        0.00000000
     303         -0.802271        1.000000        0.00000000        0.00000000        0.00000000
     304         -0.801014        1.000000        0.00000000        0.00000000        0.00000000
     305         -0.800419        1.000000        0.00000000        0.00000000        0.00000000
     306         -0.800163        1.000000        0.00000000        0.00000000        0.00000000
     307         -0.798966        1.000000        0.00000000        0.00000000        0.00000000