# Projected DOS for list 275 of 1 atoms, at iteration step i = 0, E(Fermi) =    -0.245567 a.u.
#     MO Eigenvalue [a.u.]      Occupation                 s                 p                 d
       1         -3.122063        1.000000        0.00000001        0.00000002        0.00000001
       2         -3.121278        1.000000        0.00000003        0.00000002        0.00000000
       3         -3.121021        1.000000        0.00000000        0.00000010        0.00000002
       4         -3.120578        1.000000        0.00000002        0.00000018        0.00000002
       5         -3.120271        1.000000        0.00000006        0.00000080        0.00000011
       6         -3.119857        1.000000        0.00000001        0.00000003        0.00000001
       7         -3.119652        1.000000        0.00000001        0.00000002        0.00000000
       8         -3.119624        1.000000        0.00000002        0.00000002        0.00000001
       9         -3.119219        1.000000        0.00000002        0.00000002        0.00000001
      10         -3.119023        1.000000        0.00000001        0.00000001        0.00000000
      11         -3.118913        1.000000        0.00000001        0.00000002        0.00000001
      12         -3.118874        1.000000        0.00000000        0.00000003        0.00000001
      13         -3.118317        1.000000        0.00000006        0.00000017        0.00000003
      14         -3.118249        1.000000        0.00000001        0.00000003        0.00000000
      15         -3.117895        1.000000        0.00000000        0.00000002        0.00000000
      16         -3.117383        1.000000        0.00000000        0.00000001        0.00000000
      17         -3.117165        1.000000        0.00000000        0.00000002        0.00000000
      18         -3.116815        1.000000        0.00000001        0.00000002        0.00000000
      19         -3.116436        1.000000        0.00000000        0.00000001        0.00000000
      20         -3.116021        1.000000        0.00000000        0.00000000        0.00000000
      21         -3.115852        1.000000        0.00000000        0.00000001        0.00000001
      22         -3.115668        1.000000        0.00000005        0.00000009        0.00000005
      23         -3.115368        1.000000        0.00000000        0.00000001        0.00000000
      24         -3.115339        1.000000        0.00000002        0.00000001        0.00000001
      25         -3.115041        1.000000        0.00000004        0.00000054        0.00000011
      26         -3.114366        1.000000        0.00000001        0.00000002        0.00000000
      27         -3.113951        1.000000        0.00000001        0.00000013        0.00000002
      28         -3.113764        1.000000        0.00000000        0.00000001        0.00000000
      29         -3.112534        1.000000        0.00000000        0.00000005        0.00000001
      30         -3.111679        1.000000        0.00000000        0.00000000        0.00000000
      31         -1.784233        1.000000        0.00000001        0.00000005        0.00000001
      32         -1.782870        1.000000        0.00000000        0.00000000        0.00000000
      33         -1.782324        1.000000        0.00000000        0.00000000        0.00000000
      34         -1.782130        1.000000        0.00000000        0.00000000        0.00000000
      35         -1.781736        1.000000        0.00000000        0.00000002        0.00000000
      36         -1.781230        1.000000        0.00000001        0.00000004        0.00000001
      37         -1.780847        1.000000        0.00000001        0.00000007        0.00000001
      38         -1.780487        1.000000        0.00000001        0.00000007        0.00000001
      39         -1.780184        1.000000        0.00000000        0.00000001        0.00000000
      40         -1.779550        1.000000        0.00000001        0.00000005        0.00000001
      41         -1.779259        1.000000        0.00000000        0.00000003        0.00000000
      42         -1.778921        1.000000        0.00000000        0.00000002        0.00000000
      43         -1.778390        1.000000        0.00000000        0.00000001        0.00000000
      44         -1.778140        1.000000        0.00000000        0.00000000        0.00000000
      45         -1.777912        1.000000        0.00000000        0.00000000        0.00000000
      46         -1.777514        1.000000        0.00000000        0.00000002        0.00000000
      47         -1.777362        1.000000        0.00000001        0.00000009        0.00000001
      48         -1.776787        1.000000        0.00000000        0.00000002        0.00000000
      49         -1.776537        1.000000        0.00000000        0.00000000        0.00000000
      50         -1.776457        1.000000        0.00000000        0.00000000        0.00000000
      51         -1.776029        1.000000        0.00000000        0.00000001        0.00000000
      52         -1.774038        1.000000        0.00000000        0.00000000        0.00000000
      53         -1.773797        1.000000        0.00000001        0.00000008        0.00000001
      54         -1.773665        1.000000        0.00000000        0.00000001        0.00000000
      55         -1.772725        1.000000        0.00000000        0.00000004        0.00000000
      56         -1.772546        1.000000        0.00000000        0.00000000        0.00000000
      57         -1.772041        1.000000        0.00000001        0.00000004        0.00000000
      58         -1.771662        1.000000        0.00000000        0.00000000        0.00000000
      59         -1.771364        1.000000        0.00000000        0.00000000        0.00000000
      60         -1.770813        1.000000        0.00000000        0.00000000        0.00000000
      61         -1.770640        1.000000        0.00000000        0.00000001        0.00000001
      62         -1.770449        1.000000        0.00000000        0.00000000        0.00000000
      63         -1.770188        1.000000        0.00000000        0.00000000        0.00000000
      64         -1.770126        1.000000        0.00000000        0.00000001        0.00000001
      65         -1.769991        1.000000        0.00000001        0.00000010        0.00000002
      66         -1.769845        1.000000        0.00000000        0.00000003        0.00000001
      67         -1.769763        1.000000        0.00000000        0.00000000        0.00000000
      68         -1.769661        1.000000        0.00000000        0.00000001        0.00000000
      69         -1.769465        1.000000        0.00000000        0.00000000        0.00000000
      70         -1.769351        1.000000        0.00000000        0.00000001        0.00000000
      71         -1.769328        1.000000        0.00000000        0.00000000        0.00000000
      72         -1.769216        1.000000        0.00000000        0.00000000        0.00000000
      73         -1.769129        1.000000        0.00000000        0.00000002        0.00000001
      74         -1.769070        1.000000        0.00000000        0.00000000        0.00000000
      75         -1.768941        1.000000        0.00000000        0.00000000        0.00000000
      76         -1.768822        1.000000        0.00000000        0.00000002        0.00000001
      77         -1.768707        1.000000        0.00000000        0.00000002        0.00000001
      78         -1.768585        1.000000        0.00000000        0.00000001        0.00000000
      79         -1.768439        1.000000        0.00000000        0.00000001        0.00000000
      80         -1.768329        1.000000        0.00000000        0.00000000        0.00000000
      81         -1.768089        1.000000        0.00000000        0.00000001        0.00000001
      82         -1.767883        1.000000        0.00000000        0.00000001        0.00000001
      83         -1.767662        1.000000        0.00000000        0.00000001        0.00000000
      84         -1.767495        1.000000        0.00000000        0.00000003        0.00000001
      85         -1.767311        1.000000        0.00000000        0.00000000        0.00000000
      86         -1.767266        1.000000        0.00000000        0.00000001        0.00000000
      87         -1.767060        1.000000        0.00000000        0.00000001        0.00000000
      88         -1.767025        1.000000        0.00000001        0.00000001        0.00000001
      89         -1.766872        1.000000        0.00000000        0.00000000        0.00000000
      90         -1.766524        1.000000        0.00000000        0.00000002        0.00000001
      91         -1.766405        1.000000        0.00000000        0.00000000        0.00000000
      92         -1.766254        1.000000        0.00000000        0.00000001        0.00000000
      93         -1.766123        1.000000        0.00000000        0.00000001        0.00000000
      94         -1.765857        1.000000        0.00000000        0.00000000        0.00000000
      95         -1.765515        1.000000        0.00000000        0.00000000        0.00000000
      96         -1.765181        1.000000        0.00000000        0.00000000        0.00000000
      97         -1.765105        1.000000        0.00000000        0.00000000        0.00000000
      98         -1.764967        1.000000        0.00000000        0.00000000        0.00000000
      99         -1.764710        1.000000        0.00000000        0.00000000        0.00000000
     100         -1.764440        1.000000        0.00000000        0.00000000        0.00000000
     101         -1.764248        1.000000        0.00000000        0.00000000        0.00000000
     102         -1.763945        1.000000        0.00000000        0.00000000        0.00000000
     103         -1.763804        1.000000        0.00000000        0.00000000        0.00000000
     104         -1.763351        1.000000        0.00000000        0.00000000        0.00000000
     105         -1.763205        1.000000        0.00000000        0.00000000        0.00000000
     106         -1.763107        1.000000        0.00000000        0.00000001        0.00000000
     107         -1.762531        1.000000        0.00000000        0.00000001        0.00000000
     108         -1.762343        1.000000        0.00000000        0.00000001        0.00000000
     109         -1.761453        1.000000        0.00000000        0.00000000        0.00000000
     110         -1.760969        1.000000        0.00000000        0.00000001        0.00000000
     111         -1.760481        1.000000        0.00000000        0.00000000        0.00000000
     112         -1.760009        1.000000        0.00000000        0.00000004        0.00000001
     113         -1.759531        1.000000        0.00000000        0.00000000        0.00000000
     114         -1.759105        1.000000        0.00000000        0.00000000        0.00000000
     115         -1.758777        1.000000        0.00000000        0.00000000        0.00000000
     116         -1.757462        1.000000        0.00000000        0.00000000        0.00000000
     117         -1.756221        1.000000        0.00000000        0.00000000        0.00000000
     118         -1.755333        1.000000        0.00000000        0.00000000        0.00000000
     119         -1.754385        1.000000        0.00000000        0.00000000        0.00000000
     120         -1.752742        1.000000        0.00000000        0.00000000        0.00000000
     121         -1.131181        1.000000        0.00005404        0.00001858        0.00000261
     122         -1.128658        1.000000        0.00000022        0.00000037        0.00000010
     123         -1.128000        1.000000        0.00002326        0.00000666        0.00000088
     124         -1.126427        1.000000        0.00000031        0.00000020        0.00000003
     125         -1.120469        1.000000        0.00002045        0.00000539        0.00000099
     126         -1.119202        1.000000        0.00000003        0.00000028        0.00000011
     127         -1.117081        1.000000        0.00009036        0.00002239        0.00000331
     128         -1.116156        1.000000        0.00000334        0.00000211        0.00000112
     129         -1.115054        1.000000        0.00277776        0.00071621        0.00009901
     130         -1.111818        1.000000        0.00019255        0.00003515        0.00000469
     131         -1.111610        1.000000        0.00182682        0.00042797        0.00004950
     132         -1.110976        1.000000        0.00053079        0.00011585        0.00001347
     133         -1.109888        1.000000        0.00212509        0.00046807        0.00005392
     134         -1.108601        1.000000        0.00006878        0.00002308        0.00000341
     135         -1.108036        1.000000        0.00045548        0.00008770        0.00001218
     136         -1.107349        1.000000        0.00001047        0.00001215        0.00000336
     137         -1.106797        1.000000        0.00012868        0.00002490        0.00000497
     138         -1.106077        1.000000        0.00066026        0.00016210        0.00001769
     139         -1.104162        1.000000        0.00003422        0.00001339        0.00001783
     140         -1.102892        1.000000        0.00044099        0.00006312        0.00000790
     141         -1.102196        1.000000        0.00000021        0.00000381        0.00000081
     142         -1.101581        1.000000        0.00032645        0.00006910        0.00000723
     143         -1.101215        1.000000        0.00045312        0.00010456        0.00000980
     144         -1.099602        1.000000        0.00139146        0.00027217        0.00003109
     145         -1.098107        1.000000        0.00097376        0.00019153        0.00002402
     146         -1.097450        1.000000        0.00088654        0.00017588        0.00002001
     147         -1.097046        1.000000        0.00163600        0.00024534        0.00002860
     148         -1.095795        1.000000        0.00055206        0.00010337        0.00001464
     149         -1.095192        1.000000        0.00108652        0.00016613        0.00002087
     150         -1.093515        1.000000        0.00126714        0.00018628        0.00002630
     151         -1.093123        1.000000        0.00018394        0.00001526        0.00000631
     152         -1.092614        1.000000        0.00112376        0.00020037        0.00002251
     153         -1.091821        1.000000        0.00049883        0.00005675        0.00000897
     154         -1.090761        1.000000        0.00581494        0.00084445        0.00008685
     155         -1.090597        1.000000        0.00080168        0.00010794        0.00001598
     156         -1.089544        1.000000        0.00009728        0.00002085        0.00000828
     157         -1.088154        1.000000        0.00317829        0.00038776        0.00004320
     158         -1.086960        1.000000        0.00047070        0.00004526        0.00000601
     159         -1.086718        1.000000        0.00306289        0.00039363        0.00003742
     160         -1.085525        1.000000        0.00208757        0.00024585        0.00002488
     161         -1.084219        1.000000        0.00005654        0.00000192        0.00000247
     162         -1.082734        1.000000        0.00083902        0.00008952        0.00000930
     163         -1.082381        1.000000        0.00015444        0.00001738        0.00000603
     164         -1.080807        1.000000        0.00041635        0.00007454        0.00001315
     165         -1.080293        1.000000        0.00271293        0.00027261        0.00004403
     166         -1.079453        1.000000        0.00035974        0.00000940        0.00000916
     167         -1.078246        1.000000        0.00089947        0.00005886        0.00000742
     168         -1.077774        1.000000        0.00524379        0.00034021        0.00003990
     169         -1.077143        1.000000        0.00008657        0.00004339        0.00000398
     170         -1.076426        1.000000        0.00009950        0.00001458        0.00000261
     171         -1.076145        1.000000        0.00026738        0.00007213        0.00000930
     172         -1.074526        1.000000        0.00077345        0.00005039        0.00000506
     173         -1.074368        1.000000        0.00722080        0.00055558        0.00004906
     174         -1.073652        1.000000        0.00397777        0.00011771        0.00002064
     175         -1.072808        1.000000        0.00028315        0.00001668        0.00000872
     176         -1.072152        1.000000        0.00034831        0.00001282        0.00000421
     177         -1.071192        1.000000        0.00956297        0.00069601        0.00005712
     178         -1.070444        1.000000        0.00180020        0.00005926        0.00001915
     179         -1.070141        1.000000        0.00483423        0.00014904        0.00002154
     180         -1.069416        1.000000        0.00208600        0.00013303        0.00001781
     181         -1.069179        1.000000        0.00530513        0.00021267        0.00003757
     182         -1.067610        1.000000        0.00004073        0.00002406        0.00001077
     183         -1.066240        1.000000        0.00059053        0.00003954        0.00000679
     184         -1.065124        1.000000        0.00198515        0.00018016        0.00001741
     185         -1.064565        1.000000        0.00883327        0.00039595        0.00003206
     186         -1.063575        1.000000        0.00894817        0.00052318        0.00004241
     187         -1.062901        1.000000        0.01029733        0.00033429        0.00005052
     188         -1.062274        1.000000        0.00646506        0.00026226        0.00003046
     189         -1.061481        1.000000        0.00000802        0.00001181        0.00000576
     190         -1.061312        1.000000        0.00404411        0.00017909        0.00003339
     191         -1.060592        1.000000        0.00135503        0.00004792        0.00000687
     192         -1.059297        1.000000        0.00059370        0.00003049        0.00001650
     193         -1.058643        1.000000        0.00273173        0.00013201        0.00004323
     194         -1.058262        1.000000        0.00158497        0.00013740        0.00003588
     195         -1.057127        1.000000        0.00029620        0.00016639        0.00006191
     196         -1.056224        1.000000        0.00603794        0.00046500        0.00016927
     197         -1.056050        1.000000        0.00037597        0.00007654        0.00002073
     198         -1.054881        1.000000        0.00025209        0.00037307        0.00006987
     199         -1.054669        1.000000        0.00167569        0.00009208        0.00002454
     200         -1.053605        1.000000        0.00005605        0.00004179        0.00004604
     201         -1.053457        1.000000        0.00008825        0.00009243        0.00004380
     202         -1.052589        1.000000        0.00002024        0.00007102        0.00002443
     203         -1.052089        1.000000        0.00082752        0.00007811        0.00002503
     204         -1.051299        1.000000        0.00014009        0.00003312        0.00001121
     205         -1.050676        1.000000        0.00052948        0.00002505        0.00000843
     206         -1.050307        1.000000        0.00324242        0.00014634        0.00002962
     207         -1.049921        1.000000        0.00011705        0.00000947        0.00000089
     208         -1.049485        1.000000        0.00130811        0.00021581        0.00003924
     209         -1.049126        1.000000        0.00042940        0.00009145        0.00001041
     210         -1.048445        1.000000        0.00017623        0.00004302        0.00001429
     211         -1.048201        1.000000        0.00003235        0.00001447        0.00000458
     212         -1.047911        1.000000        0.00003319        0.00013880        0.00001646
     213         -1.047620        1.000000        0.00306672        0.00011627        0.00002372
     214         -1.046931        1.000000        0.00009703        0.00001211        0.00001156
     215         -1.046733        1.000000        0.00589037        0.00016069        0.00003153
     216         -1.046634        1.000000        0.01002716        0.00026043        0.00001558
     217         -1.045930        1.000000        0.00213151        0.00006028        0.00000350
     218         -1.045069        1.000000        0.02597786        0.00086619        0.00005564
     219         -1.044350        1.000000        0.00137229        0.00004106        0.00000223
     220         -1.043623        1.000000        0.00212508        0.00016005        0.00006230
     221         -1.043421        1.000000        0.08660832        0.00332259        0.00024907
     222         -1.042778        1.000000        0.00155215        0.00005632        0.00000360
     223         -1.042701        1.000000        0.00000180        0.00005481        0.00002175
     224         -1.042424        1.000000        0.00001746        0.00006988        0.00002169
     225         -1.041682        1.000000        0.00070337        0.00002057        0.00002240
     226         -1.041498        1.000000        0.00817428        0.00023997        0.00003092
     227         -1.040837        1.000000        0.00067447        0.00005953        0.00002915
     228         -1.040496        1.000000        0.00029294        0.00000870        0.00000069
     229         -1.040151        1.000000        0.00172452        0.00010674        0.00002429
     230         -1.039686        1.000000        0.00088698        0.00002881        0.00000276
     231         -1.038961        1.000000        0.00000619        0.00003167        0.00001024
     232         -1.038553        1.000000        0.00404190        0.00011165        0.00000466
     233         -1.038476        1.000000        0.00182968        0.00006643        0.00000867
     234         -1.038152        1.000000        0.00006999        0.00001831        0.00000357
     235         -1.038041        1.000000        0.00016527        0.00003018        0.00000894
     236         -1.036855        1.000000        0.00289349        0.00013924        0.00002817
     237         -1.036488        1.000000        0.01404092        0.00042299        0.00000925
     238         -1.036186        1.000000        0.00002831        0.00001130        0.00000440
     239         -1.036068        1.000000        0.00000429        0.00000446        0.00000136
     240         -1.035757        1.000000        0.00885587        0.00030052        0.00001785
     241         -1.035291        1.000000        0.00876798        0.00026356        0.00000632
     242         -1.035048        1.000000        0.00900916        0.00025044        0.00001719
     243         -1.035000        1.000000        0.00101907        0.00002754        0.00000476
     244         -1.034454        1.000000        0.00515814        0.00013671        0.00000454
     245         -1.034219        1.000000        0.00441344        0.00011670        0.00000812
     246         -1.033874        1.000000        0.02393943        0.00064651        0.00001182
     247         -1.033507        1.000000        0.00033875        0.00000895        0.00000243
     248         -1.033219        1.000000        0.01062701        0.00030983        0.00000728
     249         -1.033056        1.000000        0.00924507        0.00029374        0.00001286
     250         -1.032307        1.000000        0.01116105        0.00030761        0.00000610
     251         -1.031324        1.000000        0.04150670        0.00112472        0.00003059
     252         -1.031144        1.000000        0.00580967        0.00018701        0.00001387
     253         -1.030643        1.000000        0.00021020        0.00002158        0.00001814
     254         -1.030284        1.000000        0.01055257        0.00032332        0.00004576
     255         -1.030062        1.000000        0.00611563        0.00021486        0.00003448
     256         -1.029818        1.000000        0.00229670        0.00009636        0.00002749
     257         -1.028552        1.000000        0.00241120        0.00006084        0.00002959
     258         -1.027578        1.000000        0.00936816        0.00025179        0.00016661
     259         -1.027121        1.000000        0.00051913        0.00001461        0.00000284
     260         -1.026880        1.000000        0.00687908        0.00017714        0.00003620
     261         -1.026226        1.000000        0.00351542        0.00010350        0.00002346
     262         -1.025765        1.000000        0.00059157        0.00001602        0.00000389
     263         -1.025299        1.000000        0.00002991        0.00000086        0.00000005
     264         -1.025158        1.000000        0.00004284        0.00000558        0.00000613
     265         -1.025007        1.000000        0.00057488        0.00001452        0.00000515
     266         -1.024422        1.000000        0.00038216        0.00001925        0.00000955
     267         -1.023793        1.000000        0.00000546        0.00000061        0.00000017
     268         -1.023594        1.000000        0.00000320        0.00000018        0.00000050
     269         -1.023069        1.000000        0.00000982        0.00000094        0.00000110
     270         -1.022603        1.000000        0.00001101        0.00000095        0.00000168
     271         -1.022074        1.000000        0.00015982        0.00000984        0.00000892
     272         -1.021695        1.000000        0.00001364        0.00000063        0.00000041
     273         -1.021372        1.000000        0.00000068        0.00000034        0.00000008
     274         -1.021076        1.000000        0.00057893        0.00005391        0.00001143
     275         -1.019492        1.000000        0.00114432        0.00002524        0.00000190
     276         -1.018003        1.000000        0.00001038        0.00000129        0.00000050
     277         -1.016408        1.000000        0.00033353        0.00004615        0.00000803
     278         -1.016278        1.000000        0.00003612        0.00000470        0.00000086
     279         -1.015338        1.000000        0.00033011        0.00000975        0.00000273
     280         -1.013851        1.000000        0.00000275        0.00000083        0.00000054
     281         -1.010223        1.000000        0.00001851        0.00000119        0.00000123
     282         -1.009666        1.000000        0.00000122        0.00000005        0.00000001
     283         -1.007726        1.000000        0.00000934        0.00000026        0.00000003
     284         -1.007300        1.000000        0.00000019        0.00000003        0.00000003
     285         -1.006916        1.000000        0.00000001        0.00000000        0.00000000
     286         -0.889442        1.000000        0.00000039        0.00000014        0.00000007
     287         -0.869424        1.000000        0.00000002        0.00000022        0.00000005
     288         -0.867225        1.000000        0.00000025        0.00000005        0.00000007
     289         -0.864755        1.000000        0.00000020        0.00000016        0.00000014
     290         -0.860947        1.000000        0.00000004        0.00000045        0.00000007
     291         -0.846899        1.000000        0.00000033        0.00000004        0.00000007
     292         -0.844423        1.000000        0.00000008        0.00000043        0.00000009
     293         -0.843782        1.000000        0.00000001        0.00000003        0.00000004
     294         -0.840445        1.000000        0.00000001        0.00000011        0.00000008
     295         -0.821748        1.000000        0.00000048        0.00000010        0.00000007
     296         -0.818927        1.000000        0.00000011        0.00000062        0.00000012
     297         -0.814033        1.000000        0.00000044        0.00000014        0.00000007
     298         -0.808071        1.000000        0.00000105        0.00000028        0.00000019
     299         -0.807076        1.000000        0.00000019        0.00000008        0.00000002
     300         -0.806003        1.000000        0.00000000        0.00000002        0.00000001
     301         -0.805433        1.000000        0.00000003        0.00000014        0.00000004
     302         -0.803208        1.000000        0.00000001        0.00000044        0.00000011
     303         -0.802271        1.000000        0.00000007        0.00000005        0.00000004
     304         -0.801014        1.000000        0.00000006        0.00000028        0.00000014
     305         -0.800419        1.000000        0.00000005        0.00000029        0.00000009
     306         -0.800163        1.000000        0.00000005        0.00000082        0.00000015
     307         -0.798966        1.000000        0.00000007        0.00000016        0.00000003