# Projected DOS for list 178 of 1 atoms, at iteration step i = 0, E(Fermi) =    -0.245567 a.u.
#     MO Eigenvalue [a.u.]      Occupation                 s                 p                 d
       1         -3.122063        1.000000        0.00000001        0.00000000        0.00000000
       2         -3.121278        1.000000        0.00000001        0.00000000        0.00000000
       3         -3.121021        1.000000        0.00000000        0.00000000        0.00000000
       4         -3.120578        1.000000        0.00000003        0.00000001        0.00000000
       5         -3.120271        1.000000        0.00000000        0.00000000        0.00000000
       6         -3.119857        1.000000        0.00000001        0.00000003        0.00000000
       7         -3.119652        1.000000        0.00000000        0.00000000        0.00000000
       8         -3.119624        1.000000        0.00000000        0.00000000        0.00000000
       9         -3.119219        1.000000        0.00000000        0.00000000        0.00000000
      10         -3.119023        1.000000        0.00000000        0.00000000        0.00000000
      11         -3.118913        1.000000        0.00000000        0.00000000        0.00000000
      12         -3.118874        1.000000        0.00000000        0.00000000        0.00000000
      13         -3.118317        1.000000        0.00000000        0.00000000        0.00000000
      14         -3.118249        1.000000        0.00000000        0.00000000        0.00000000
      15         -3.117895        1.000000        0.00000000        0.00000000        0.00000000
      16         -3.117383        1.000000        0.00000000        0.00000001        0.00000000
      17         -3.117165        1.000000        0.00000000        0.00000000        0.00000000
      18         -3.116815        1.000000        0.00000000        0.00000000        0.00000000
      19         -3.116436        1.000000        0.00000000        0.00000000        0.00000000
      20         -3.116021        1.000000        0.00000000        0.00000000        0.00000000
      21         -3.115852        1.000000        0.00000000        0.00000001        0.00000000
      22         -3.115668        1.000000        0.00000000        0.00000000        0.00000000
      23         -3.115368        1.000000        0.00000000        0.00000000        0.00000000
      24         -3.115339        1.000000        0.00000000        0.00000001        0.00000000
      25         -3.115041        1.000000        0.00000000        0.00000000        0.00000000
      26         -3.114366        1.000000        0.00000000        0.00000000        0.00000000
      27         -3.113951        1.000000        0.00000000        0.00000001        0.00000000
      28         -3.113764        1.000000        0.00000000        0.00000000        0.00000000
      29         -3.112534        1.000000        0.00000000        0.00000000        0.00000000
      30         -3.111679        1.000000        0.00000000        0.00000000        0.00000000
      31         -1.784233        1.000000        0.00000000        0.00000000        0.00000000
      32         -1.782870        1.000000        0.00000000        0.00000000        0.00000000
      33         -1.782324        1.000000        0.00000000        0.00000000        0.00000000
      34         -1.782130        1.000000        0.00000000        0.00000000        0.00000000
      35         -1.781736        1.000000        0.00000000        0.00000000        0.00000000
      36         -1.781230        1.000000        0.00000000        0.00000000        0.00000000
      37         -1.780847        1.000000        0.00000000        0.00000000        0.00000000
      38         -1.780487        1.000000        0.00000000        0.00000000        0.00000000
      39         -1.780184        1.000000        0.00000000        0.00000000        0.00000000
      40         -1.779550        1.000000        0.00000000        0.00000000        0.00000000
      41         -1.779259        1.000000        0.00000000        0.00000000        0.00000000
      42         -1.778921        1.000000        0.00000000        0.00000000        0.00000000
      43         -1.778390        1.000000        0.00000000        0.00000000        0.00000000
      44         -1.778140        1.000000        0.00000000        0.00000000        0.00000000
      45         -1.777912        1.000000        0.00000000        0.00000000        0.00000000
      46         -1.777514        1.000000        0.00000000        0.00000000        0.00000000
      47         -1.777362        1.000000        0.00000000        0.00000000        0.00000000
      48         -1.776787        1.000000        0.00000000        0.00000000        0.00000000
      49         -1.776537        1.000000        0.00000000        0.00000000        0.00000000
      50         -1.776457        1.000000        0.00000000        0.00000000        0.00000000
      51         -1.776029        1.000000        0.00000000        0.00000000        0.00000000
      52         -1.774038        1.000000        0.00000000        0.00000000        0.00000000
      53         -1.773797        1.000000        0.00000000        0.00000000        0.00000000
      54         -1.773665        1.000000        0.00000000        0.00000000        0.00000000
      55         -1.772725        1.000000        0.00000000        0.00000000        0.00000000
      56         -1.772546        1.000000        0.00000000        0.00000000        0.00000000
      57         -1.772041        1.000000        0.00000000        0.00000000        0.00000000
      58         -1.771662        1.000000        0.00000000        0.00000000        0.00000000
      59         -1.771364        1.000000        0.00000000        0.00000000        0.00000000
      60         -1.770813        1.000000        0.00000000        0.00000000        0.00000000
      61         -1.770640        1.000000        0.00000000        0.00000000        0.00000000
      62         -1.770449        1.000000        0.00000000        0.00000000        0.00000000
      63         -1.770188        1.000000        0.00000000        0.00000000        0.00000000
      64         -1.770126        1.000000        0.00000000        0.00000000        0.00000000
      65         -1.769991        1.000000        0.00000000        0.00000000        0.00000000
      66         -1.769845        1.000000        0.00000000        0.00000000        0.00000000
      67         -1.769763        1.000000        0.00000000        0.00000000        0.00000000
      68         -1.769661        1.000000        0.00000000        0.00000000        0.00000000
      69         -1.769465        1.000000        0.00000000        0.00000000        0.00000000
      70         -1.769351        1.000000        0.00000000        0.00000000        0.00000000
      71         -1.769328        1.000000        0.00000000        0.00000000        0.00000000
      72         -1.769216        1.000000        0.00000000        0.00000000        0.00000000
      73         -1.769129        1.000000        0.00000000        0.00000000        0.00000000
      74         -1.769070        1.000000        0.00000000        0.00000000        0.00000000
      75         -1.768941        1.000000        0.00000000        0.00000000        0.00000000
      76         -1.768822        1.000000        0.00000000        0.00000000        0.00000000
      77         -1.768707        1.000000        0.00000000        0.00000000        0.00000000
      78         -1.768585        1.000000        0.00000000        0.00000000        0.00000000
      79         -1.768439        1.000000        0.00000000        0.00000000        0.00000000
      80         -1.768329        1.000000        0.00000000        0.00000000        0.00000000
      81         -1.768089        1.000000        0.00000000        0.00000000        0.00000000
      82         -1.767883        1.000000        0.00000000        0.00000000        0.00000000
      83         -1.767662        1.000000        0.00000000        0.00000000        0.00000000
      84         -1.767495        1.000000        0.00000000        0.00000000        0.00000000
      85         -1.767311        1.000000        0.00000000        0.00000000        0.00000000
      86         -1.767266        1.000000        0.00000000        0.00000000        0.00000000
      87         -1.767060        1.000000        0.00000000        0.00000000        0.00000000
      88         -1.767025        1.000000        0.00000000        0.00000000        0.00000000
      89         -1.766872        1.000000        0.00000000        0.00000000        0.00000000
      90         -1.766524        1.000000        0.00000000        0.00000000        0.00000000
      91         -1.766405        1.000000        0.00000000        0.00000000        0.00000000
      92         -1.766254        1.000000        0.00000000        0.00000000        0.00000000
      93         -1.766123        1.000000        0.00000000        0.00000000        0.00000000
      94         -1.765857        1.000000        0.00000000        0.00000000        0.00000000
      95         -1.765515        1.000000        0.00000000        0.00000000        0.00000000
      96         -1.765181        1.000000        0.00000000        0.00000000        0.00000000
      97         -1.765105        1.000000        0.00000000        0.00000000        0.00000000
      98         -1.764967        1.000000        0.00000000        0.00000000        0.00000000
      99         -1.764710        1.000000        0.00000000        0.00000000        0.00000000
     100         -1.764440        1.000000        0.00000000        0.00000000        0.00000000
     101         -1.764248        1.000000        0.00000000        0.00000000        0.00000000
     102         -1.763945        1.000000        0.00000000        0.00000000        0.00000000
     103         -1.763804        1.000000        0.00000000        0.00000000        0.00000000
     104         -1.763351        1.000000        0.00000000        0.00000000        0.00000000
     105         -1.763205        1.000000        0.00000000        0.00000000        0.00000000
     106         -1.763107        1.000000        0.00000000        0.00000000        0.00000000
     107         -1.762531        1.000000        0.00000000        0.00000000        0.00000000
     108         -1.762343        1.000000        0.00000000        0.00000000        0.00000000
     109         -1.761453        1.000000        0.00000000        0.00000000        0.00000000
     110         -1.760969        1.000000        0.00000000        0.00000000        0.00000000
     111         -1.760481        1.000000        0.00000000        0.00000000        0.00000000
     112         -1.760009        1.000000        0.00000000        0.00000000        0.00000000
     113         -1.759531        1.000000        0.00000000        0.00000000        0.00000000
     114         -1.759105        1.000000        0.00000000        0.00000000        0.00000000
     115         -1.758777        1.000000        0.00000000        0.00000000        0.00000000
     116         -1.757462        1.000000        0.00000000        0.00000000        0.00000000
     117         -1.756221        1.000000        0.00000000        0.00000000        0.00000000
     118         -1.755333        1.000000        0.00000000        0.00000000        0.00000000
     119         -1.754385        1.000000        0.00000000        0.00000000        0.00000000
     120         -1.752742        1.000000        0.00000000        0.00000000        0.00000000
     121         -1.131181        1.000000        0.00706829        0.00036652        0.00016123
     122         -1.128658        1.000000        0.00384687        0.00087976        0.00008643
     123         -1.128000        1.000000        0.00565776        0.00046143        0.00013218
     124         -1.126427        1.000000        0.00003250        0.00002267        0.00000161
     125         -1.120469        1.000000        0.00532393        0.00038918        0.00009620
     126         -1.119202        1.000000        0.01078757        0.00083663        0.00019574
     127         -1.117081        1.000000        0.00368589        0.00018383        0.00009279
     128         -1.116156        1.000000        0.00602726        0.00033875        0.00011088
     129         -1.115054        1.000000        0.00283925        0.00011590        0.00004416
     130         -1.111818        1.000000        0.00577330        0.00014172        0.00009291
     131         -1.111610        1.000000        0.00206092        0.00060137        0.00006672
     132         -1.110976        1.000000        0.00517885        0.00009848        0.00008220
     133         -1.109888        1.000000        0.01126548        0.00032827        0.00020856
     134         -1.108601        1.000000        0.00861076        0.00014429        0.00012904
     135         -1.108036        1.000000        0.00261085        0.00021754        0.00004381
     136         -1.107349        1.000000        0.00062791        0.00001869        0.00001137
     137         -1.106797        1.000000        0.00360781        0.00005250        0.00005105
     138         -1.106077        1.000000        0.00548467        0.00030456        0.00006768
     139         -1.104162        1.000000        0.00557694        0.00050210        0.00003786
     140         -1.102892        1.000000        0.04258933        0.00057610        0.00052862
     141         -1.102196        1.000000        0.00067506        0.00071324        0.00005250
     142         -1.101581        1.000000        0.00151436        0.00005786        0.00001580
     143         -1.101215        1.000000        0.00661100        0.00024397        0.00007899
     144         -1.099602        1.000000        0.01272516        0.00021800        0.00014072
     145         -1.098107        1.000000        0.00005798        0.00007382        0.00000721
     146         -1.097450        1.000000        0.00195840        0.00052689        0.00004866
     147         -1.097046        1.000000        0.00008577        0.00051325        0.00001425
     148         -1.095795        1.000000        0.00160483        0.00008875        0.00001992
     149         -1.095192        1.000000        0.00026236        0.00027012        0.00000519
     150         -1.093515        1.000000        0.00395976        0.00015621        0.00002175
     151         -1.093123        1.000000        0.00002616        0.00018152        0.00001150
     152         -1.092614        1.000000        0.00030610        0.00013467        0.00001157
     153         -1.091821        1.000000        0.01084219        0.00012679        0.00009573
     154         -1.090761        1.000000        0.00089407        0.00002381        0.00001017
     155         -1.090597        1.000000        0.01435186        0.00036979        0.00011995
     156         -1.089544        1.000000        0.00328178        0.00005202        0.00002653
     157         -1.088154        1.000000        0.00370142        0.00036183        0.00005330
     158         -1.086960        1.000000        0.01880006        0.00022264        0.00014180
     159         -1.086718        1.000000        0.00138052        0.00060056        0.00003554
     160         -1.085525        1.000000        0.00321050        0.00003854        0.00004332
     161         -1.084219        1.000000        0.00000120        0.00018206        0.00000993
     162         -1.082734        1.000000        0.00015104        0.00001363        0.00000931
     163         -1.082381        1.000000        0.01512125        0.00221655        0.00009770
     164         -1.080807        1.000000        0.00037133        0.00047358        0.00004051
     165         -1.080293        1.000000        0.00043274        0.00001884        0.00003062
     166         -1.079453        1.000000        0.00006071        0.00021335        0.00001100
     167         -1.078246        1.000000        0.00010159        0.00122195        0.00004224
     168         -1.077774        1.000000        0.00145774        0.00014982        0.00003216
     169         -1.077143        1.000000        0.00262403        0.00024814        0.00001174
     170         -1.076426        1.000000        0.01434618        0.00063454        0.00009768
     171         -1.076145        1.000000        0.01640570        0.00082852        0.00010684
     172         -1.074526        1.000000        0.00053772        0.00138923        0.00004452
     173         -1.074368        1.000000        0.00000419        0.00061029        0.00002795
     174         -1.073652        1.000000        0.00018538        0.00036816        0.00001613
     175         -1.072808        1.000000        0.00185143        0.00011341        0.00000767
     176         -1.072152        1.000000        0.00000119        0.00012479        0.00000655
     177         -1.071192        1.000000        0.00006608        0.00026672        0.00000915
     178         -1.070444        1.000000        0.00001232        0.00007023        0.00000682
     179         -1.070141        1.000000        0.00177314        0.00012436        0.00001548
     180         -1.069416        1.000000        0.00300317        0.00006545        0.00001099
     181         -1.069179        1.000000        0.00036336        0.00001116        0.00001402
     182         -1.067610        1.000000        0.00020291        0.00058874        0.00003522
     183         -1.066240        1.000000        0.00002199        0.00082367        0.00006387
     184         -1.065124        1.000000        0.00001099        0.00024003        0.00000475
     185         -1.064565        1.000000        0.00225084        0.00006665        0.00001857
     186         -1.063575        1.000000        0.00010926        0.00001879        0.00001214
     187         -1.062901        1.000000        0.00211011        0.00002679        0.00001228
     188         -1.062274        1.000000        0.00065821        0.00003317        0.00000863
     189         -1.061481        1.000000        0.00000418        0.00022237        0.00004797
     190         -1.061312        1.000000        0.00178455        0.00013387        0.00001127
     191         -1.060592        1.000000        0.00001085        0.00007257        0.00003644
     192         -1.059297        1.000000        0.00122368        0.00041494        0.00012754
     193         -1.058643        1.000000        0.00041333        0.00006370        0.00002262
     194         -1.058262        1.000000        0.00002505        0.00010548        0.00006209
     195         -1.057127        1.000000        0.00141401        0.00012072        0.00002308
     196         -1.056224        1.000000        0.00000234        0.00001570        0.00002177
     197         -1.056050        1.000000        0.00562454        0.00011905        0.00001327
     198         -1.054881        1.000000        0.00333793        0.00002015        0.00000793
     199         -1.054669        1.000000        0.00731747        0.00009250        0.00010684
     200         -1.053605        1.000000        0.00511161        0.00033428        0.00001989
     201         -1.053457        1.000000        0.00050747        0.00012008        0.00000575
     202         -1.052589        1.000000        0.00482218        0.00002839        0.00000332
     203         -1.052089        1.000000        0.00038217        0.00002453        0.00001615
     204         -1.051299        1.000000        0.00102778        0.00008492        0.00001183
     205         -1.050676        1.000000        0.02151809        0.00028672        0.00002419
     206         -1.050307        1.000000        0.02601164        0.00028896        0.00002858
     207         -1.049921        1.000000        0.00001712        0.00002467        0.00000661
     208         -1.049485        1.000000        0.03881306        0.00029544        0.00004993
     209         -1.049126        1.000000        0.02542777        0.00031884        0.00002231
     210         -1.048445        1.000000        0.01563842        0.00024038        0.00004905
     211         -1.048201        1.000000        0.00066053        0.00001135        0.00002804
     212         -1.047911        1.000000        0.00235130        0.00001664        0.00003226
     213         -1.047620        1.000000        0.02386436        0.00039621        0.00007682
     214         -1.046931        1.000000        0.00711736        0.00041813        0.00003810
     215         -1.046733        1.000000        0.00701763        0.00010949        0.00000953
     216         -1.046634        1.000000        0.00003867        0.00014399        0.00011534
     217         -1.045930        1.000000        0.00168823        0.00001927        0.00000911
     218         -1.045069        1.000000        0.00032914        0.00005849        0.00009197
     219         -1.044350        1.000000        0.00036891        0.00005214        0.00004247
     220         -1.043623        1.000000        0.00614168        0.00011279        0.00000407
     221         -1.043421        1.000000        0.00023820        0.00004854        0.00005207
     222         -1.042778        1.000000        0.00066843        0.00000426        0.00002490
     223         -1.042701        1.000000        0.00208319        0.00006369        0.00000216
     224         -1.042424        1.000000        0.00087478        0.00008343        0.00000333
     225         -1.041682        1.000000        0.00030247        0.00000666        0.00000099
     226         -1.041498        1.000000        0.00197510        0.00003593        0.00000818
     227         -1.040837        1.000000        0.00047319        0.00002621        0.00001120
     228         -1.040496        1.000000        0.00016000        0.00000611        0.00000167
     229         -1.040151        1.000000        0.00272043        0.00003615        0.00000849
     230         -1.039686        1.000000        0.00001997        0.00000279        0.00000838
     231         -1.038961        1.000000        0.00015255        0.00001868        0.00000867
     232         -1.038553        1.000000        0.00006213        0.00001066        0.00001507
     233         -1.038476        1.000000        0.00002837        0.00002769        0.00003308
     234         -1.038152        1.000000        0.00088102        0.00001721        0.00000891
     235         -1.038041        1.000000        0.00027252        0.00000630        0.00000135
     236         -1.036855        1.000000        0.00010517        0.00006355        0.00005673
     237         -1.036488        1.000000        0.00031831        0.00007551        0.00005474
     238         -1.036186        1.000000        0.00006699        0.00000941        0.00000900
     239         -1.036068        1.000000        0.00010283        0.00000271        0.00000220
     240         -1.035757        1.000000        0.00021531        0.00017470        0.00007057
     241         -1.035291        1.000000        0.00056526        0.00001518        0.00000704
     242         -1.035048        1.000000        0.00023512        0.00006748        0.00001480
     243         -1.035000        1.000000        0.00000043        0.00005264        0.00001842
     244         -1.034454        1.000000        0.00053027        0.00000631        0.00000860
     245         -1.034219        1.000000        0.00172720        0.00002717        0.00004123
     246         -1.033874        1.000000        0.00004429        0.00006140        0.00002053
     247         -1.033507        1.000000        0.00003427        0.00000130        0.00000068
     248         -1.033219        1.000000        0.00045222        0.00001213        0.00000963
     249         -1.033056        1.000000        0.00002912        0.00004428        0.00000842
     250         -1.032307        1.000000        0.00003230        0.00002030        0.00001905
     251         -1.031324        1.000000        0.00011461        0.00010797        0.00010342
     252         -1.031144        1.000000        0.00010036        0.00000316        0.00000119
     253         -1.030643        1.000000        0.00024672        0.00003785        0.00003537
     254         -1.030284        1.000000        0.00003161        0.00009343        0.00009409
     255         -1.030062        1.000000        0.00001554        0.00007024        0.00007050
     256         -1.029818        1.000000        0.00019911        0.00007869        0.00006649
     257         -1.028552        1.000000        0.00014565        0.00003141        0.00002053
     258         -1.027578        1.000000        0.00011190        0.00004236        0.00004102
     259         -1.027121        1.000000        0.00003935        0.00000171        0.00000114
     260         -1.026880        1.000000        0.00024956        0.00000615        0.00001339
     261         -1.026226        1.000000        0.00080847        0.00005307        0.00001537
     262         -1.025765        1.000000        0.00000481        0.00000063        0.00000039
     263         -1.025299        1.000000        0.00004591        0.00000273        0.00000094
     264         -1.025158        1.000000        0.00179882        0.00007282        0.00003198
     265         -1.025007        1.000000        0.00022314        0.00004387        0.00000482
     266         -1.024422        1.000000        0.00368997        0.00011998        0.00006443
     267         -1.023793        1.000000        0.00014929        0.00001535        0.00000367
     268         -1.023594        1.000000        0.00002610        0.00000387        0.00000132
     269         -1.023069        1.000000        0.00292881        0.00038773        0.00007317
     270         -1.022603        1.000000        0.00160432        0.00021270        0.00004194
     271         -1.022074        1.000000        0.01955934        0.00211069        0.00047012
     272         -1.021695        1.000000        0.00348792        0.00029792        0.00007911
     273         -1.021372        1.000000        0.00000896        0.00000061        0.00000041
     274         -1.021076        1.000000        0.00670116        0.00025194        0.00012451
     275         -1.019492        1.000000        0.00030677        0.00001468        0.00001502
     276         -1.018003        1.000000        0.00002232        0.00000121        0.00000049
     277         -1.016408        1.000000        0.00003405        0.00000131        0.00000118
     278         -1.016278        1.000000        0.00001446        0.00000141        0.00000167
     279         -1.015338        1.000000        0.00129029        0.00009680        0.00013828
     280         -1.013851        1.000000        0.00000272        0.00000008        0.00000009
     281         -1.010223        1.000000        0.00000275        0.00000020        0.00000007
     282         -1.009666        1.000000        0.00000149        0.00000020        0.00000016
     283         -1.007726        1.000000        0.00000000        0.00000013        0.00000002
     284         -1.007300        1.000000        0.00000000        0.00000006        0.00000004
     285         -1.006916        1.000000        0.00000004        0.00000000        0.00000000
     286         -0.889442        1.000000        0.00000006        0.00000003        0.00000000
     287         -0.869424        1.000000        0.00000001        0.00000001        0.00000000
     288         -0.867225        1.000000        0.00000001        0.00000002        0.00000000
     289         -0.864755        1.000000        0.00000001        0.00000003        0.00000000
     290         -0.860947        1.000000        0.00000000        0.00000001        0.00000000
     291         -0.846899        1.000000        0.00000001        0.00000001        0.00000000
     292         -0.844423        1.000000        0.00000000        0.00000000        0.00000000
     293         -0.843782        1.000000        0.00000000        0.00000001        0.00000000
     294         -0.840445        1.000000        0.00000000        0.00000001        0.00000000
     295         -0.821748        1.000000        0.00000001        0.00000001        0.00000000
     296         -0.818927        1.000000        0.00000000        0.00000000        0.00000000
     297         -0.814033        1.000000        0.00000006        0.00000008        0.00000000
     298         -0.808071        1.000000        0.00000001        0.00000001        0.00000000
     299         -0.807076        1.000000        0.00000000        0.00000004        0.00000000
     300         -0.806003        1.000000        0.00000000        0.00000001        0.00000000
     301         -0.805433        1.000000        0.00000000        0.00000000        0.00000000
     302         -0.803208        1.000000        0.00000000        0.00000001        0.00000000
     303         -0.802271        1.000000        0.00000002        0.00000002        0.00000000
     304         -0.801014        1.000000        0.00000000        0.00000001        0.00000000
     305         -0.800419        1.000000        0.00000000        0.00000001        0.00000000
     306         -0.800163        1.000000        0.00000000        0.00000000        0.00000000
     307         -0.798966        1.000000        0.00000001        0.00000002        0.00000000