# Projected DOS for list 365 of 1 atoms, at iteration step i = 0, E(Fermi) =    -0.245567 a.u.
#     MO Eigenvalue [a.u.]      Occupation                 s                 p
       1         -3.122063        1.000000        0.00000001        0.00000153
       2         -3.121278        1.000000        0.00000000        0.00000011
       3         -3.121021        1.000000        0.00000003        0.00000176
       4         -3.120578        1.000000        0.00000004        0.00000145
       5         -3.120271        1.000000        0.00000057        0.00001137
       6         -3.119857        1.000000        0.00000002        0.00000032
       7         -3.119652        1.000000        0.00000016        0.00000118
       8         -3.119624        1.000000        0.00000009        0.00000129
       9         -3.119219        1.000000        0.00000160        0.00001342
      10         -3.119023        1.000000        0.00000026        0.00000216
      11         -3.118913        1.000000        0.00000030        0.00000181
      12         -3.118874        1.000000        0.00000023        0.00000177
      13         -3.118317        1.000000        0.00000045        0.00001818
      14         -3.118249        1.000000        0.00000002        0.00000125
      15         -3.117895        1.000000        0.00000000        0.00000007
      16         -3.117383        1.000000        0.00000005        0.00000400
      17         -3.117165        1.000000        0.00000000        0.00000018
      18         -3.116815        1.000000        0.00000071        0.00000724
      19         -3.116436        1.000000        0.00000033        0.00000393
      20         -3.116021        1.000000        0.00000003        0.00000022
      21         -3.115852        1.000000        0.00000000        0.00000200
      22         -3.115668        1.000000        0.00000047        0.00000686
      23         -3.115368        1.000000        0.00000000        0.00000017
      24         -3.115339        1.000000        0.00000037        0.00000510
      25         -3.115041        1.000000        0.00000000        0.00000144
      26         -3.114366        1.000000        0.00000002        0.00000098
      27         -3.113951        1.000000        0.00000000        0.00000008
      28         -3.113764        1.000000        0.00000015        0.00000357
      29         -3.112534        1.000000        0.00000002        0.00000001
      30         -3.111679        1.000000        0.00000002        0.00000024
      31         -1.784233        1.000000        0.00000006        0.00000030
      32         -1.782870        1.000000        0.00000000        0.00000003
      33         -1.782324        1.000000        0.00000004        0.00000004
      34         -1.782130        1.000000        0.00000004        0.00000012
      35         -1.781736        1.000000        0.00000007        0.00000028
      36         -1.781230        1.000000        0.00000000        0.00000002
      37         -1.780847        1.000000        0.00000003        0.00000004
      38         -1.780487        1.000000        0.00000003        0.00000017
      39         -1.780184        1.000000        0.00000001        0.00000011
      40         -1.779550        1.000000        0.00000007        0.00000060
      41         -1.779259        1.000000        0.00000001        0.00000022
      42         -1.778921        1.000000        0.00000005        0.00000016
      43         -1.778390        1.000000        0.00000006        0.00000049
      44         -1.778140        1.000000        0.00000001        0.00000008
      45         -1.777912        1.000000        0.00000001        0.00000001
      46         -1.777514        1.000000        0.00000000        0.00000005
      47         -1.777362        1.000000        0.00000001        0.00000005
      48         -1.776787        1.000000        0.00000002        0.00000025
      49         -1.776537        1.000000        0.00000002        0.00000014
      50         -1.776457        1.000000        0.00000000        0.00000012
      51         -1.776029        1.000000        0.00000027        0.00000112
      52         -1.774038        1.000000        0.00000002        0.00000019
      53         -1.773797        1.000000        0.00000000        0.00000047
      54         -1.773665        1.000000        0.00000003        0.00000001
      55         -1.772725        1.000000        0.00000000        0.00000053
      56         -1.772546        1.000000        0.00000001        0.00000002
      57         -1.772041        1.000000        0.00000001        0.00000012
      58         -1.771662        1.000000        0.00000003        0.00000064
      59         -1.771364        1.000000        0.00000000        0.00000002
      60         -1.770813        1.000000        0.00000008        0.00000013
      61         -1.770640        1.000000        0.00000013        0.00000005
      62         -1.770449        1.000000        0.00000005        0.00000003
      63         -1.770188        1.000000        0.00000014        0.00000013
      64         -1.770126        1.000000        0.00000007        0.00000022
      65         -1.769991        1.000000        0.00000001        0.00000025
      66         -1.769845        1.000000        0.00000000        0.00000005
      67         -1.769763        1.000000        0.00000000        0.00000003
      68         -1.769661        1.000000        0.00000006        0.00000011
      69         -1.769465        1.000000        0.00000011        0.00000023
      70         -1.769351        1.000000        0.00000002        0.00000007
      71         -1.769328        1.000000        0.00000000        0.00000011
      72         -1.769216        1.000000        0.00000000        0.00000006
      73         -1.769129        1.000000        0.00000002        0.00000013
      74         -1.769070        1.000000        0.00000018        0.00000028
      75         -1.768941        1.000000        0.00000000        0.00000002
      76         -1.768822        1.000000        0.00000003        0.00000001
      77         -1.768707        1.000000        0.00000000        0.00000004
      78         -1.768585        1.000000        0.00000008        0.00000027
      79         -1.768439        1.000000        0.00000000        0.00000014
      80         -1.768329        1.000000        0.00000003        0.00000008
      81         -1.768089        1.000000        0.00000013        0.00000022
      82         -1.767883        1.000000        0.00000000        0.00000005
      83         -1.767662        1.000000        0.00000001        0.00000001
      84         -1.767495        1.000000        0.00000002        0.00000026
      85         -1.767311        1.000000        0.00000000        0.00000006
      86         -1.767266        1.000000        0.00000000        0.00000004
      87         -1.767060        1.000000        0.00000001        0.00000003
      88         -1.767025        1.000000        0.00000005        0.00000018
      89         -1.766872        1.000000        0.00000000        0.00000011
      90         -1.766524        1.000000        0.00000001        0.00000005
      91         -1.766405        1.000000        0.00000009        0.00000005
      92         -1.766254        1.000000        0.00000001        0.00000003
      93         -1.766123        1.000000        0.00000000        0.00000001
      94         -1.765857        1.000000        0.00000001        0.00000001
      95         -1.765515        1.000000        0.00000004        0.00000002
      96         -1.765181        1.000000        0.00000000        0.00000000
      97         -1.765105        1.000000        0.00000002        0.00000009
      98         -1.764967        1.000000        0.00000001        0.00000006
      99         -1.764710        1.000000        0.00000001        0.00000001
     100         -1.764440        1.000000        0.00000001        0.00000005
     101         -1.764248        1.000000        0.00000001        0.00000000
     102         -1.763945        1.000000        0.00000000        0.00000004
     103         -1.763804        1.000000        0.00000001        0.00000001
     104         -1.763351        1.000000        0.00000004        0.00000014
     105         -1.763205        1.000000        0.00000000        0.00000001
     106         -1.763107        1.000000        0.00000000        0.00000010
     107         -1.762531        1.000000        0.00000001        0.00000011
     108         -1.762343        1.000000        0.00000000        0.00000003
     109         -1.761453        1.000000        0.00000000        0.00000001
     110         -1.760969        1.000000        0.00000006        0.00000032
     111         -1.760481        1.000000        0.00000000        0.00000002
     112         -1.760009        1.000000        0.00000001        0.00000030
     113         -1.759531        1.000000        0.00000002        0.00000006
     114         -1.759105        1.000000        0.00000000        0.00000004
     115         -1.758777        1.000000        0.00000001        0.00000003
     116         -1.757462        1.000000        0.00000000        0.00000001
     117         -1.756221        1.000000        0.00000000        0.00000002
     118         -1.755333        1.000000        0.00000000        0.00000000
     119         -1.754385        1.000000        0.00000000        0.00000000
     120         -1.752742        1.000000        0.00000000        0.00000000
     121         -1.131181        1.000000        0.00000672        0.00001470
     122         -1.128658        1.000000        0.00000109        0.00001203
     123         -1.128000        1.000000        0.00000376        0.00001104
     124         -1.126427        1.000000        0.00000016        0.00000057
     125         -1.120469        1.000000        0.00000234        0.00001489
     126         -1.119202        1.000000        0.00000079        0.00001974
     127         -1.117081        1.000000        0.00000684        0.00002799
     128         -1.116156        1.000000        0.00004361        0.00007552
     129         -1.115054        1.000000        0.00020819        0.00019431
     130         -1.111818        1.000000        0.00000267        0.00000454
     131         -1.111610        1.000000        0.00001091        0.00003540
     132         -1.110976        1.000000        0.00000778        0.00001932
     133         -1.109888        1.000000        0.00004310        0.00010453
     134         -1.108601        1.000000        0.00000678        0.00001362
     135         -1.108036        1.000000        0.00006809        0.00007569
     136         -1.107349        1.000000        0.00010143        0.00016182
     137         -1.106797        1.000000        0.00001882        0.00001249
     138         -1.106077        1.000000        0.00012916        0.00017042
     139         -1.104162        1.000000        0.00006949        0.00049851
     140         -1.102892        1.000000        0.00007555        0.00021596
     141         -1.102196        1.000000        0.00006560        0.00009668
     142         -1.101581        1.000000        0.00013382        0.00015290
     143         -1.101215        1.000000        0.00002742        0.00017512
     144         -1.099602        1.000000        0.00014064        0.00017123
     145         -1.098107        1.000000        0.00015930        0.00014858
     146         -1.097450        1.000000        0.00017726        0.00023142
     147         -1.097046        1.000000        0.00014461        0.00003981
     148         -1.095795        1.000000        0.00000049        0.00007413
     149         -1.095192        1.000000        0.00002562        0.00001571
     150         -1.093515        1.000000        0.00002178        0.00005577
     151         -1.093123        1.000000        0.00066300        0.00047140
     152         -1.092614        1.000000        0.00047482        0.00045680
     153         -1.091821        1.000000        0.00019935        0.00010895
     154         -1.090761        1.000000        0.00036492        0.00036258
     155         -1.090597        1.000000        0.00008983        0.00015366
     156         -1.089544        1.000000        0.00001231        0.00013737
     157         -1.088154        1.000000        0.00000075        0.00005954
     158         -1.086960        1.000000        0.00000234        0.00000711
     159         -1.086718        1.000000        0.00000020        0.00004894
     160         -1.085525        1.000000        0.00000735        0.00005196
     161         -1.084219        1.000000        0.00012911        0.00007588
     162         -1.082734        1.000000        0.00004952        0.00001982
     163         -1.082381        1.000000        0.00074841        0.00062873
     164         -1.080807        1.000000        0.00054951        0.00044585
     165         -1.080293        1.000000        0.00004161        0.00001713
     166         -1.079453        1.000000        0.00815320        0.00431219
     167         -1.078246        1.000000        0.00033422        0.00013062
     168         -1.077774        1.000000        0.00000434        0.00011579
     169         -1.077143        1.000000        0.00326074        0.00158887
     170         -1.076426        1.000000        0.00000008        0.00000404
     171         -1.076145        1.000000        0.00238953        0.00135100
     172         -1.074526        1.000000        0.00001197        0.00000329
     173         -1.074368        1.000000        0.00009512        0.00011122
     174         -1.073652        1.000000        0.01248502        0.00600486
     175         -1.072808        1.000000        0.00401397        0.00183289
     176         -1.072152        1.000000        0.00024919        0.00013940
     177         -1.071192        1.000000        0.00010084        0.00000382
     178         -1.070444        1.000000        0.00724586        0.00339712
     179         -1.070141        1.000000        0.02752989        0.01341341
     180         -1.069416        1.000000        0.00203256        0.00112909
     181         -1.069179        1.000000        0.00073342        0.00049773
     182         -1.067610        1.000000        0.00646947        0.00304815
     183         -1.066240        1.000000        0.01221566        0.00622207
     184         -1.065124        1.000000        0.00016363        0.00016412
     185         -1.064565        1.000000        0.01086803        0.00476811
     186         -1.063575        1.000000        0.00899615        0.00461735
     187         -1.062901        1.000000        0.00259564        0.00143495
     188         -1.062274        1.000000        0.00006019        0.00008848
     189         -1.061481        1.000000        0.00344616        0.00155600
     190         -1.061312        1.000000        0.00015991        0.00012794
     191         -1.060592        1.000000        0.00844149        0.00403968
     192         -1.059297        1.000000        0.00289434        0.00136357
     193         -1.058643        1.000000        0.00061756        0.00023642
     194         -1.058262        1.000000        0.00366923        0.00167427
     195         -1.057127        1.000000        0.00560939        0.00256179
     196         -1.056224        1.000000        0.00300096        0.00165623
     197         -1.056050        1.000000        0.00000634        0.00006125
     198         -1.054881        1.000000        0.00249671        0.00115121
     199         -1.054669        1.000000        0.00040978        0.00021749
     200         -1.053605        1.000000        0.00015799        0.00007605
     201         -1.053457        1.000000        0.00026081        0.00012422
     202         -1.052589        1.000000        0.00000042        0.00000250
     203         -1.052089        1.000000        0.00003563        0.00003189
     204         -1.051299        1.000000        0.00042662        0.00019537
     205         -1.050676        1.000000        0.00001011        0.00000601
     206         -1.050307        1.000000        0.00053305        0.00022421
     207         -1.049921        1.000000        0.00020343        0.00008652
     208         -1.049485        1.000000        0.00000644        0.00000258
     209         -1.049126        1.000000        0.00017992        0.00008533
     210         -1.048445        1.000000        0.00028746        0.00011853
     211         -1.048201        1.000000        0.00001990        0.00001162
     212         -1.047911        1.000000        0.00155037        0.00066581
     213         -1.047620        1.000000        0.00015853        0.00005877
     214         -1.046931        1.000000        0.00084377        0.00035071
     215         -1.046733        1.000000        0.00119848        0.00041701
     216         -1.046634        1.000000        0.00072817        0.00023823
     217         -1.045930        1.000000        0.00022816        0.00007256
     218         -1.045069        1.000000        0.00032397        0.00008146
     219         -1.044350        1.000000        0.00003078        0.00000911
     220         -1.043623        1.000000        0.00363542        0.00130463
     221         -1.043421        1.000000        0.00049331        0.00050272
     222         -1.042778        1.000000        0.00007677        0.00001881
     223         -1.042701        1.000000        0.00006588        0.00002504
     224         -1.042424        1.000000        0.00000169        0.00000153
     225         -1.041682        1.000000        0.00009076        0.00009367
     226         -1.041498        1.000000        0.00020986        0.00016186
     227         -1.040837        1.000000        0.00002153        0.00002223
     228         -1.040496        1.000000        0.00002127        0.00000620
     229         -1.040151        1.000000        0.00000438        0.00000282
     230         -1.039686        1.000000        0.00003124        0.00000770
     231         -1.038961        1.000000        0.00005815        0.00001516
     232         -1.038553        1.000000        0.00000995        0.00000831
     233         -1.038476        1.000000        0.00007049        0.00001584
     234         -1.038152        1.000000        0.00000832        0.00000178
     235         -1.038041        1.000000        0.00000002        0.00000037
     236         -1.036855        1.000000        0.00000147        0.00000099
     237         -1.036488        1.000000        0.00000542        0.00002439
     238         -1.036186        1.000000        0.00000777        0.00000252
     239         -1.036068        1.000000        0.00000019        0.00000038
     240         -1.035757        1.000000        0.00005110        0.00003803
     241         -1.035291        1.000000        0.00005920        0.00004144
     242         -1.035048        1.000000        0.00000402        0.00001708
     243         -1.035000        1.000000        0.00000729        0.00000345
     244         -1.034454        1.000000        0.00000312        0.00001220
     245         -1.034219        1.000000        0.00000232        0.00001189
     246         -1.033874        1.000000        0.00000225        0.00004295
     247         -1.033507        1.000000        0.00000620        0.00000150
     248         -1.033219        1.000000        0.00002926        0.00003381
     249         -1.033056        1.000000        0.00000649        0.00001829
     250         -1.032307        1.000000        0.00000955        0.00001533
     251         -1.031324        1.000000        0.00000679        0.00010774
     252         -1.031144        1.000000        0.00000116        0.00001675
     253         -1.030643        1.000000        0.00000344        0.00000070
     254         -1.030284        1.000000        0.00003113        0.00003630
     255         -1.030062        1.000000        0.00000403        0.00001099
     256         -1.029818        1.000000        0.00005327        0.00001520
     257         -1.028552        1.000000        0.00000118        0.00000355
     258         -1.027578        1.000000        0.00000233        0.00001955
     259         -1.027121        1.000000        0.00000113        0.00000067
     260         -1.026880        1.000000        0.00006872        0.00003962
     261         -1.026226        1.000000        0.00001287        0.00000357
     262         -1.025765        1.000000        0.00003550        0.00001364
     263         -1.025299        1.000000        0.00000644        0.00000184
     264         -1.025158        1.000000        0.00010910        0.00002887
     265         -1.025007        1.000000        0.00015349        0.00003706
     266         -1.024422        1.000000        0.00011550        0.00008477
     267         -1.023793        1.000000        0.00001181        0.00000321
     268         -1.023594        1.000000        0.00116564        0.00031503
     269         -1.023069        1.000000        0.00000260        0.00000520
     270         -1.022603        1.000000        0.00000031        0.00000062
     271         -1.022074        1.000000        0.00010214        0.00004126
     272         -1.021695        1.000000        0.00000173        0.00000255
     273         -1.021372        1.000000        0.00000017        0.00000014
     274         -1.021076        1.000000        0.00000043        0.00000687
     275         -1.019492        1.000000        0.00000067        0.00000264
     276         -1.018003        1.000000        0.00000303        0.00000134
     277         -1.016408        1.000000        0.00000522        0.00000135
     278         -1.016278        1.000000        0.00000004        0.00000009
     279         -1.015338        1.000000        0.00000020        0.00000081
     280         -1.013851        1.000000        0.00000003        0.00000004
     281         -1.010223        1.000000        0.00000006        0.00000014
     282         -1.009666        1.000000        0.00000000        0.00000000
     283         -1.007726        1.000000        0.00000007        0.00000020
     284         -1.007300        1.000000        0.00000001        0.00000002
     285         -1.006916        1.000000        0.00000000        0.00000000
     286         -0.889442        1.000000        0.00000103        0.00019798
     287         -0.869424        1.000000        0.00000033        0.00004244
     288         -0.867225        1.000000        0.00000147        0.00009216
     289         -0.864755        1.000000        0.00000237        0.00011323
     290         -0.860947        1.000000        0.00000319        0.00018241
     291         -0.846899        1.000000        0.00000119        0.00002400
     292         -0.844423        1.000000        0.00000005        0.00002127
     293         -0.843782        1.000000        0.00000444        0.00009047
     294         -0.840445        1.000000        0.00000095        0.00002095
     295         -0.821748        1.000000        0.00000302        0.00004802
     296         -0.818927        1.000000        0.00000140        0.00004371
     297         -0.814033        1.000000        0.00000298        0.00019866
     298         -0.808071        1.000000        0.00000029        0.00002676
     299         -0.807076        1.000000        0.00000077        0.00001328
     300         -0.806003        1.000000        0.00000048        0.00002000
     301         -0.805433        1.000000        0.00000037        0.00002867
     302         -0.803208        1.000000        0.00000398        0.00002366
     303         -0.802271        1.000000        0.00000078        0.00004698
     304         -0.801014        1.000000        0.00002332        0.00039227
     305         -0.800419        1.000000        0.00000045        0.00000647
     306         -0.800163        1.000000        0.00000457        0.00008850
     307         -0.798966        1.000000        0.00000335        0.00002905
     308         -0.796270        1.000000        0.00000073        0.00002262
     309         -0.795746        1.000000        0.00000452        0.00003340
     310         -0.794333        1.000000        0.00000239        0.00001931
     311         -0.792293        1.000000        0.00000172        0.00002567
     312         -0.791548        1.000000        0.00000143        0.00003470
     313         -0.790603        1.000000        0.00000839        0.00005282
     314         -0.790424        1.000000        0.00000059        0.00000932
     315         -0.789930        1.000000        0.00000406        0.00005043
     316         -0.788450        1.000000        0.00000379        0.00003047
     317         -0.787526        1.000000        0.00000668        0.00002779
     318         -0.786788        1.000000        0.00000117        0.00000796
     319         -0.781836        1.000000        0.00000116        0.00000841
     320         -0.780998        1.000000        0.00000054        0.00000801
     321         -0.780477        1.000000        0.00000014        0.00000692
     322         -0.779060        1.000000        0.00000119        0.00000178
     323         -0.778943        1.000000        0.00000050        0.00001091
     324         -0.777233        1.000000        0.00000219        0.00001987
     325         -0.775897        1.000000        0.00000123        0.00001635
     326         -0.774887        1.000000        0.00000807        0.00007145
     327         -0.773671        1.000000        0.00000260        0.00001847
     328         -0.773422        1.000000        0.00000155        0.00001038
     329         -0.772414        1.000000        0.00000287        0.00001643
     330         -0.771266        1.000000        0.00000200        0.00000111
     331         -0.770604        1.000000        0.00000065        0.00000127
     332         -0.769886        1.000000        0.00000047        0.00000627
     333         -0.769439        1.000000        0.00000608        0.00002011
     334         -0.769009        1.000000        0.00000256        0.00001886
     335         -0.767483        1.000000        0.00000032        0.00000845
     336         -0.766717        1.000000        0.00000808        0.00002879
     337         -0.765490        1.000000        0.00000177        0.00000569
     338         -0.763700        1.000000        0.00000075        0.00001354
     339         -0.762625        1.000000        0.00000108        0.00000689
     340         -0.761653        1.000000        0.00000061        0.00000637
     341         -0.761196        1.000000        0.00000168        0.00000767
     342         -0.759265        1.000000        0.00000043        0.00000189
     343         -0.758410        1.000000        0.00000389        0.00001128
     344         -0.755260        1.000000        0.00000067        0.00000309
     345         -0.754586        1.000000        0.00000004        0.00000043
     346         -0.703685        1.000000        0.00000154        0.00000053
     347         -0.693847        1.000000        0.00000404        0.00000028
     348         -0.690060        1.000000        0.00000007        0.00000023
     349         -0.688902        1.000000        0.00000024        0.00000038
     350         -0.684111        1.000000        0.00000328        0.00000412
     351         -0.681092        1.000000        0.00003092        0.00000249
     352         -0.678905        1.000000        0.00002515        0.00000130
     353         -0.676982        1.000000        0.00003175        0.00000215
     354         -0.673929        1.000000        0.00000499        0.00000202
     355         -0.673106        1.000000        0.00002783        0.00000233
     356         -0.670728        1.000000        0.00000543        0.00000800
     357         -0.670092        1.000000        0.00000061        0.00000032
     358         -0.669168        1.000000        0.00000284        0.00001034
     359         -0.667801        1.000000        0.00002141        0.00000593
     360         -0.665884        1.000000        0.00003097        0.00000208
     361         -0.664702        1.000000        0.00004285        0.00000259
     362         -0.662263        1.000000        0.00000228        0.00000519
     363         -0.660875        1.000000        0.00000063        0.00000183
     364         -0.658191        1.000000        0.00002054        0.00002841
     365         -0.657373        1.000000        0.00001707        0.00001054
     366         -0.655967        1.000000        0.00005051        0.00000504
     367         -0.655536        1.000000        0.00000461        0.00001613
     368         -0.653752        1.000000        0.00009911        0.00000993
     369         -0.651127        1.000000        0.00003256        0.00000124
     370         -0.648938        1.000000        0.00001543        0.00000550
     371         -0.647875        1.000000        0.00001235        0.00001047
     372         -0.644925        1.000000        0.00002767        0.00000911
     373         -0.644581        1.000000        0.00000069        0.00000068
     374         -0.641910        1.000000        0.00002683        0.00000311
     375         -0.641212        1.000000        0.00001404        0.00000337
     376         -0.639876        1.000000        0.00001981        0.00000554
     377         -0.637901        1.000000        0.00011356        0.00000627