# Projected DOS for list 272 of 1 atoms, at iteration step i = 0, E(Fermi) =    -0.245567 a.u.
#     MO Eigenvalue [a.u.]      Occupation                 s                 p
       1         -3.122063        1.000000        0.00000085        0.00001535
       2         -3.121278        1.000000        0.00000001        0.00000002
       3         -3.121021        1.000000        0.00000008        0.00000101
       4         -3.120578        1.000000        0.00000012        0.00000534
       5         -3.120271        1.000000        0.00000003        0.00000405
       6         -3.119857        1.000000        0.00000027        0.00000629
       7         -3.119652        1.000000        0.00000007        0.00000147
       8         -3.119624        1.000000        0.00000016        0.00000262
       9         -3.119219        1.000000        0.00000034        0.00001065
      10         -3.119023        1.000000        0.00000012        0.00000298
      11         -3.118913        1.000000        0.00000003        0.00000127
      12         -3.118874        1.000000        0.00000000        0.00000081
      13         -3.118317        1.000000        0.00000064        0.00000553
      14         -3.118249        1.000000        0.00000006        0.00000059
      15         -3.117895        1.000000        0.00000000        0.00000006
      16         -3.117383        1.000000        0.00000092        0.00002253
      17         -3.117165        1.000000        0.00000000        0.00000000
      18         -3.116815        1.000000        0.00000033        0.00000390
      19         -3.116436        1.000000        0.00000061        0.00000597
      20         -3.116021        1.000000        0.00000011        0.00000058
      21         -3.115852        1.000000        0.00000230        0.00001262
      22         -3.115668        1.000000        0.00000000        0.00000011
      23         -3.115368        1.000000        0.00000000        0.00000007
      24         -3.115339        1.000000        0.00000012        0.00000064
      25         -3.115041        1.000000        0.00000012        0.00000002
      26         -3.114366        1.000000        0.00000000        0.00000006
      27         -3.113951        1.000000        0.00000005        0.00000022
      28         -3.113764        1.000000        0.00000001        0.00000023
      29         -3.112534        1.000000        0.00000000        0.00000000
      30         -3.111679        1.000000        0.00000000        0.00000001
      31         -1.784233        1.000000        0.00000001        0.00000016
      32         -1.782870        1.000000        0.00000008        0.00000011
      33         -1.782324        1.000000        0.00000006        0.00000025
      34         -1.782130        1.000000        0.00000008        0.00000039
      35         -1.781736        1.000000        0.00000008        0.00000021
      36         -1.781230        1.000000        0.00000003        0.00000029
      37         -1.780847        1.000000        0.00000000        0.00000009
      38         -1.780487        1.000000        0.00000008        0.00000024
      39         -1.780184        1.000000        0.00000000        0.00000002
      40         -1.779550        1.000000        0.00000000        0.00000037
      41         -1.779259        1.000000        0.00000003        0.00000010
      42         -1.778921        1.000000        0.00000003        0.00000021
      43         -1.778390        1.000000        0.00000012        0.00000056
      44         -1.778140        1.000000        0.00000009        0.00000031
      45         -1.777912        1.000000        0.00000002        0.00000003
      46         -1.777514        1.000000        0.00000003        0.00000037
      47         -1.777362        1.000000        0.00000001        0.00000002
      48         -1.776787        1.000000        0.00000009        0.00000051
      49         -1.776537        1.000000        0.00000005        0.00000027
      50         -1.776457        1.000000        0.00000004        0.00000030
      51         -1.776029        1.000000        0.00000001        0.00000026
      52         -1.774038        1.000000        0.00000001        0.00000034
      53         -1.773797        1.000000        0.00000003        0.00000051
      54         -1.773665        1.000000        0.00000001        0.00000012
      55         -1.772725        1.000000        0.00000001        0.00000015
      56         -1.772546        1.000000        0.00000000        0.00000015
      57         -1.772041        1.000000        0.00000008        0.00000040
      58         -1.771662        1.000000        0.00000001        0.00000037
      59         -1.771364        1.000000        0.00000001        0.00000002
      60         -1.770813        1.000000        0.00000013        0.00000017
      61         -1.770640        1.000000        0.00000000        0.00000003
      62         -1.770449        1.000000        0.00000004        0.00000009
      63         -1.770188        1.000000        0.00000002        0.00000000
      64         -1.770126        1.000000        0.00000013        0.00000033
      65         -1.769991        1.000000        0.00000001        0.00000056
      66         -1.769845        1.000000        0.00000003        0.00000006
      67         -1.769763        1.000000        0.00000005        0.00000033
      68         -1.769661        1.000000        0.00000000        0.00000014
      69         -1.769465        1.000000        0.00000002        0.00000005
      70         -1.769351        1.000000        0.00000004        0.00000016
      71         -1.769328        1.000000        0.00000000        0.00000012
      72         -1.769216        1.000000        0.00000000        0.00000010
      73         -1.769129        1.000000        0.00000006        0.00000004
      74         -1.769070        1.000000        0.00000000        0.00000005
      75         -1.768941        1.000000        0.00000002        0.00000000
      76         -1.768822        1.000000        0.00000000        0.00000004
      77         -1.768707        1.000000        0.00000000        0.00000001
      78         -1.768585        1.000000        0.00000003        0.00000008
      79         -1.768439        1.000000        0.00000013        0.00000035
      80         -1.768329        1.000000        0.00000000        0.00000006
      81         -1.768089        1.000000        0.00000012        0.00000023
      82         -1.767883        1.000000        0.00000001        0.00000013
      83         -1.767662        1.000000        0.00000002        0.00000008
      84         -1.767495        1.000000        0.00000001        0.00000005
      85         -1.767311        1.000000        0.00000004        0.00000017
      86         -1.767266        1.000000        0.00000008        0.00000022
      87         -1.767060        1.000000        0.00000000        0.00000000
      88         -1.767025        1.000000        0.00000001        0.00000014
      89         -1.766872        1.000000        0.00000000        0.00000005
      90         -1.766524        1.000000        0.00000002        0.00000003
      91         -1.766405        1.000000        0.00000008        0.00000008
      92         -1.766254        1.000000        0.00000003        0.00000004
      93         -1.766123        1.000000        0.00000001        0.00000003
      94         -1.765857        1.000000        0.00000001        0.00000003
      95         -1.765515        1.000000        0.00000001        0.00000004
      96         -1.765181        1.000000        0.00000000        0.00000001
      97         -1.765105        1.000000        0.00000004        0.00000014
      98         -1.764967        1.000000        0.00000000        0.00000007
      99         -1.764710        1.000000        0.00000000        0.00000001
     100         -1.764440        1.000000        0.00000001        0.00000006
     101         -1.764248        1.000000        0.00000010        0.00000012
     102         -1.763945        1.000000        0.00000004        0.00000010
     103         -1.763804        1.000000        0.00000001        0.00000004
     104         -1.763351        1.000000        0.00000000        0.00000003
     105         -1.763205        1.000000        0.00000002        0.00000007
     106         -1.763107        1.000000        0.00000003        0.00000018
     107         -1.762531        1.000000        0.00000006        0.00000018
     108         -1.762343        1.000000        0.00000000        0.00000001
     109         -1.761453        1.000000        0.00000000        0.00000004
     110         -1.760969        1.000000        0.00000003        0.00000018
     111         -1.760481        1.000000        0.00000000        0.00000002
     112         -1.760009        1.000000        0.00000001        0.00000011
     113         -1.759531        1.000000        0.00000000        0.00000002
     114         -1.759105        1.000000        0.00000001        0.00000003
     115         -1.758777        1.000000        0.00000000        0.00000002
     116         -1.757462        1.000000        0.00000000        0.00000002
     117         -1.756221        1.000000        0.00000000        0.00000000
     118         -1.755333        1.000000        0.00000000        0.00000000
     119         -1.754385        1.000000        0.00000000        0.00000001
     120         -1.752742        1.000000        0.00000000        0.00000000
     121         -1.131181        1.000000        0.00020405        0.00014813
     122         -1.128658        1.000000        0.00022774        0.00014149
     123         -1.128000        1.000000        0.00026951        0.00016011
     124         -1.126427        1.000000        0.00001211        0.00000603
     125         -1.120469        1.000000        0.00009762        0.00007435
     126         -1.119202        1.000000        0.00029193        0.00025902
     127         -1.117081        1.000000        0.00027164        0.00010912
     128         -1.116156        1.000000        0.00099405        0.00063501
     129         -1.115054        1.000000        0.00132555        0.00075250
     130         -1.111818        1.000000        0.00001708        0.00014653
     131         -1.111610        1.000000        0.00005592        0.00002465
     132         -1.110976        1.000000        0.00048002        0.00031867
     133         -1.109888        1.000000        0.00282554        0.00162986
     134         -1.108601        1.000000        0.00016082        0.00011772
     135         -1.108036        1.000000        0.00187808        0.00077663
     136         -1.107349        1.000000        0.00023802        0.00006407
     137         -1.106797        1.000000        0.00002834        0.00000861
     138         -1.106077        1.000000        0.00018186        0.00008465
     139         -1.104162        1.000000        0.02012989        0.00909415
     140         -1.102892        1.000000        0.00316064        0.00190366
     141         -1.102196        1.000000        0.00017254        0.00014259
     142         -1.101581        1.000000        0.00307241        0.00130542
     143         -1.101215        1.000000        0.00422009        0.00157506
     144         -1.099602        1.000000        0.00402432        0.00164251
     145         -1.098107        1.000000        0.00041818        0.00038644
     146         -1.097450        1.000000        0.00014294        0.00004862
     147         -1.097046        1.000000        0.00167557        0.00065483
     148         -1.095795        1.000000        0.00374189        0.00121531
     149         -1.095192        1.000000        0.00282804        0.00096080
     150         -1.093515        1.000000        0.00136778        0.00041246
     151         -1.093123        1.000000        0.00001081        0.00001157
     152         -1.092614        1.000000        0.00061955        0.00012036
     153         -1.091821        1.000000        0.00021676        0.00016843
     154         -1.090761        1.000000        0.00827160        0.00131768
     155         -1.090597        1.000000        0.00429983        0.00050679
     156         -1.089544        1.000000        0.01991997        0.00313651
     157         -1.088154        1.000000        0.00591502        0.00101577
     158         -1.086960        1.000000        0.00191184        0.00026265
     159         -1.086718        1.000000        0.00483775        0.00052407
     160         -1.085525        1.000000        0.00026936        0.00305694
     161         -1.084219        1.000000        0.00027184        0.00002179
     162         -1.082734        1.000000        0.00007114        0.00136016
     163         -1.082381        1.000000        0.00150092        0.00873906
     164         -1.080807        1.000000        0.00276794        0.00304557
     165         -1.080293        1.000000        0.00085537        0.00002853
     166         -1.079453        1.000000        0.00000651        0.00023143
     167         -1.078246        1.000000        0.00059860        0.00095941
     168         -1.077774        1.000000        0.00339004        0.00451485
     169         -1.077143        1.000000        0.00184165        0.00253601
     170         -1.076426        1.000000        0.00018105        0.00038003
     171         -1.076145        1.000000        0.00017539        0.00006998
     172         -1.074526        1.000000        0.00134488        0.00138052
     173         -1.074368        1.000000        0.00021796        0.00090133
     174         -1.073652        1.000000        0.00090864        0.00067543
     175         -1.072808        1.000000        0.00682339        0.00486927
     176         -1.072152        1.000000        0.00062237        0.00034205
     177         -1.071192        1.000000        0.00447438        0.00218845
     178         -1.070444        1.000000        0.00104565        0.00062138
     179         -1.070141        1.000000        0.00074421        0.00072530
     180         -1.069416        1.000000        0.00185952        0.00064897
     181         -1.069179        1.000000        0.00251870        0.00192119
     182         -1.067610        1.000000        0.00343945        0.00288706
     183         -1.066240        1.000000        0.00334224        0.00222769
     184         -1.065124        1.000000        0.00394444        0.00287369
     185         -1.064565        1.000000        0.00002170        0.00006604
     186         -1.063575        1.000000        0.00028293        0.00002507
     187         -1.062901        1.000000        0.00045285        0.00015245
     188         -1.062274        1.000000        0.00662530        0.00439417
     189         -1.061481        1.000000        0.00000972        0.00008395
     190         -1.061312        1.000000        0.00018546        0.00041414
     191         -1.060592        1.000000        0.00405303        0.00242511
     192         -1.059297        1.000000        0.00102141        0.00027010
     193         -1.058643        1.000000        0.00017393        0.00025278
     194         -1.058262        1.000000        0.00128064        0.00044343
     195         -1.057127        1.000000        0.00003940        0.00029044
     196         -1.056224        1.000000        0.00052449        0.00001523
     197         -1.056050        1.000000        0.00350344        0.00558124
     198         -1.054881        1.000000        0.00026297        0.00056161
     199         -1.054669        1.000000        0.00050203        0.00069140
     200         -1.053605        1.000000        0.00580241        0.00287302
     201         -1.053457        1.000000        0.00334693        0.00179874
     202         -1.052589        1.000000        0.00001464        0.00000476
     203         -1.052089        1.000000        0.00002157        0.00001420
     204         -1.051299        1.000000        0.00259089        0.00137054
     205         -1.050676        1.000000        0.00006684        0.00004811
     206         -1.050307        1.000000        0.00001875        0.00001313
     207         -1.049921        1.000000        0.00000501        0.00000326
     208         -1.049485        1.000000        0.00103317        0.00057968
     209         -1.049126        1.000000        0.00001737        0.00001494
     210         -1.048445        1.000000        0.00112545        0.00040903
     211         -1.048201        1.000000        0.00002372        0.00000242
     212         -1.047911        1.000000        0.00023006        0.00007386
     213         -1.047620        1.000000        0.00000968        0.00001651
     214         -1.046931        1.000000        0.00013752        0.00003433
     215         -1.046733        1.000000        0.00003679        0.00001459
     216         -1.046634        1.000000        0.00059693        0.00023787
     217         -1.045930        1.000000        0.00002227        0.00001197
     218         -1.045069        1.000000        0.00014379        0.00007543
     219         -1.044350        1.000000        0.00007070        0.00003163
     220         -1.043623        1.000000        0.00006715        0.00003568
     221         -1.043421        1.000000        0.00015327        0.00006179
     222         -1.042778        1.000000        0.00000096        0.00000015
     223         -1.042701        1.000000        0.00005268        0.00004207
     224         -1.042424        1.000000        0.00006225        0.00006812
     225         -1.041682        1.000000        0.00001007        0.00001038
     226         -1.041498        1.000000        0.00038732        0.00003472
     227         -1.040837        1.000000        0.00005698        0.00002420
     228         -1.040496        1.000000        0.00001103        0.00000316
     229         -1.040151        1.000000        0.00020791        0.00004092
     230         -1.039686        1.000000        0.00000029        0.00000197
     231         -1.038961        1.000000        0.00000009        0.00000198
     232         -1.038553        1.000000        0.00003896        0.00000311
     233         -1.038476        1.000000        0.00000600        0.00000291
     234         -1.038152        1.000000        0.00002229        0.00001008
     235         -1.038041        1.000000        0.00000125        0.00000281
     236         -1.036855        1.000000        0.00028216        0.00015220
     237         -1.036488        1.000000        0.00004491        0.00004387
     238         -1.036186        1.000000        0.00000033        0.00000185
     239         -1.036068        1.000000        0.00000078        0.00000895
     240         -1.035757        1.000000        0.00003965        0.00001787
     241         -1.035291        1.000000        0.00003419        0.00000159
     242         -1.035048        1.000000        0.00042745        0.00029406
     243         -1.035000        1.000000        0.00016647        0.00004161
     244         -1.034454        1.000000        0.00025373        0.00013859
     245         -1.034219        1.000000        0.00053407        0.00037066
     246         -1.033874        1.000000        0.00004863        0.00001843
     247         -1.033507        1.000000        0.00000022        0.00000158
     248         -1.033219        1.000000        0.00004899        0.00002759
     249         -1.033056        1.000000        0.00002415        0.00000384
     250         -1.032307        1.000000        0.00000120        0.00000608
     251         -1.031324        1.000000        0.00006562        0.00005593
     252         -1.031144        1.000000        0.00002743        0.00007990
     253         -1.030643        1.000000        0.00000210        0.00001235
     254         -1.030284        1.000000        0.00000323        0.00000041
     255         -1.030062        1.000000        0.00000036        0.00000031
     256         -1.029818        1.000000        0.00001899        0.00002991
     257         -1.028552        1.000000        0.00000739        0.00000333
     258         -1.027578        1.000000        0.00000716        0.00002428
     259         -1.027121        1.000000        0.00000218        0.00000170
     260         -1.026880        1.000000        0.00001204        0.00001307
     261         -1.026226        1.000000        0.00004356        0.00003035
     262         -1.025765        1.000000        0.00000071        0.00000033
     263         -1.025299        1.000000        0.00000120        0.00000156
     264         -1.025158        1.000000        0.00003657        0.00003999
     265         -1.025007        1.000000        0.00001625        0.00000473
     266         -1.024422        1.000000        0.00014449        0.00008107
     267         -1.023793        1.000000        0.00000469        0.00000419
     268         -1.023594        1.000000        0.00001747        0.00000796
     269         -1.023069        1.000000        0.00006371        0.00003202
     270         -1.022603        1.000000        0.00002746        0.00001577
     271         -1.022074        1.000000        0.00022656        0.00017847
     272         -1.021695        1.000000        0.00003920        0.00002555
     273         -1.021372        1.000000        0.00000025        0.00000009
     274         -1.021076        1.000000        0.00006424        0.00002737
     275         -1.019492        1.000000        0.00000322        0.00000887
     276         -1.018003        1.000000        0.00000097        0.00000042
     277         -1.016408        1.000000        0.00000008        0.00000010
     278         -1.016278        1.000000        0.00000070        0.00000001
     279         -1.015338        1.000000        0.00000175        0.00000084
     280         -1.013851        1.000000        0.00000015        0.00000017
     281         -1.010223        1.000000        0.00000261        0.00001319
     282         -1.009666        1.000000        0.00000001        0.00000001
     283         -1.007726        1.000000        0.00000040        0.00000064
     284         -1.007300        1.000000        0.00000007        0.00000038
     285         -1.006916        1.000000        0.00000000        0.00000000
     286         -0.889442        1.000000        0.00000121        0.00023776
     287         -0.869424        1.000000        0.00000302        0.00019287
     288         -0.867225        1.000000        0.00000003        0.00002741
     289         -0.864755        1.000000        0.00000675        0.00028170
     290         -0.860947        1.000000        0.00000012        0.00005104
     291         -0.846899        1.000000        0.00000399        0.00012600
     292         -0.844423        1.000000        0.00000393        0.00007741
     293         -0.843782        1.000000        0.00000002        0.00001951
     294         -0.840445        1.000000        0.00000011        0.00000970
     295         -0.821748        1.000000        0.00000017        0.00003822
     296         -0.818927        1.000000        0.00000374        0.00003278
     297         -0.814033        1.000000        0.00000757        0.00033486
     298         -0.808071        1.000000        0.00000013        0.00000580
     299         -0.807076        1.000000        0.00000020        0.00006666
     300         -0.806003        1.000000        0.00000396        0.00005217
     301         -0.805433        1.000000        0.00001668        0.00017704
     302         -0.803208        1.000000        0.00000063        0.00002527
     303         -0.802271        1.000000        0.00000786        0.00018756
     304         -0.801014        1.000000        0.00000204        0.00007068
     305         -0.800419        1.000000        0.00000743        0.00008959
     306         -0.800163        1.000000        0.00000252        0.00006939
     307         -0.798966        1.000000        0.00000030        0.00000892
     308         -0.796270        1.000000        0.00000015        0.00000577
     309         -0.795746        1.000000        0.00000280        0.00004010
     310         -0.794333        1.000000        0.00000011        0.00000457
     311         -0.792293        1.000000        0.00000024        0.00001302
     312         -0.791548        1.000000        0.00000076        0.00001172
     313         -0.790603        1.000000        0.00000250        0.00003773
     314         -0.790424        1.000000        0.00000015        0.00001744
     315         -0.789930        1.000000        0.00000084        0.00001732
     316         -0.788450        1.000000        0.00000003        0.00000435
     317         -0.787526        1.000000        0.00000003        0.00001320
     318         -0.786788        1.000000        0.00000664        0.00001548
     319         -0.781836        1.000000        0.00000127        0.00001036
     320         -0.780998        1.000000        0.00000284        0.00002406
     321         -0.780477        1.000000        0.00000051        0.00001613
     322         -0.779060        1.000000        0.00000710        0.00005227
     323         -0.778943        1.000000        0.00000458        0.00003456
     324         -0.777233        1.000000        0.00000322        0.00002939
     325         -0.775897        1.000000        0.00000536        0.00002467
     326         -0.774887        1.000000        0.00000011        0.00001347
     327         -0.773671        1.000000        0.00000609        0.00003309
     328         -0.773422        1.000000        0.00000003        0.00000180
     329         -0.772414        1.000000        0.00000000        0.00000378
     330         -0.771266        1.000000        0.00000147        0.00000589
     331         -0.770604        1.000000        0.00000003        0.00000042
     332         -0.769886        1.000000        0.00000073        0.00000177
     333         -0.769439        1.000000        0.00000065        0.00001148
     334         -0.769009        1.000000        0.00000102        0.00000461
     335         -0.767483        1.000000        0.00000075        0.00000230
     336         -0.766717        1.000000        0.00000001        0.00000205
     337         -0.765490        1.000000        0.00000099        0.00000657
     338         -0.763700        1.000000        0.00000120        0.00000493
     339         -0.762625        1.000000        0.00000001        0.00000208
     340         -0.761653        1.000000        0.00000023        0.00000137
     341         -0.761196        1.000000        0.00000004        0.00000061
     342         -0.759265        1.000000        0.00000061        0.00000172
     343         -0.758410        1.000000        0.00000058        0.00000317
     344         -0.755260        1.000000        0.00000004        0.00000051
     345         -0.754586        1.000000        0.00000000        0.00000001
     346         -0.703685        1.000000        0.00006637        0.00000903
     347         -0.693847        1.000000        0.00002288        0.00000161
     348         -0.690060        1.000000        0.00003656        0.00000862
     349         -0.688902        1.000000        0.00005244        0.00000820
     350         -0.684111        1.000000        0.00072051        0.00009724
     351         -0.681092        1.000000        0.00012848        0.00001031
     352         -0.678905        1.000000        0.00006603        0.00000092
     353         -0.676982        1.000000        0.00010330        0.00000830
     354         -0.673929        1.000000        0.00072640        0.00009661
     355         -0.673106        1.000000        0.00016097        0.00003297
     356         -0.670728        1.000000        0.00134636        0.00011082
     357         -0.670092        1.000000        0.00001392        0.00000081
     358         -0.669168        1.000000        0.00153957        0.00019381
     359         -0.667801        1.000000        0.00000191        0.00000200
     360         -0.665884        1.000000        0.00014989        0.00002056
     361         -0.664702        1.000000        0.00006511        0.00000055
     362         -0.662263        1.000000        0.00023442        0.00001920
     363         -0.660875        1.000000        0.00005301        0.00000529
     364         -0.658191        1.000000        0.00333459        0.00025463
     365         -0.657373        1.000000        0.00084724        0.00007192
     366         -0.655967        1.000000        0.00026631        0.00001051
     367         -0.655536        1.000000        0.00339545        0.00034139
     368         -0.653752        1.000000        0.00424045        0.00033123
     369         -0.651127        1.000000        0.00003410        0.00001243
     370         -0.648938        1.000000        0.00025954        0.00001853
     371         -0.647875        1.000000        0.00139871        0.00016816
     372         -0.644925        1.000000        0.00056627        0.00009219
     373         -0.644581        1.000000        0.00007172        0.00000895
     374         -0.641910        1.000000        0.00029517        0.00000248
     375         -0.641212        1.000000        0.00280921        0.00019027
     376         -0.639876        1.000000        0.00007200        0.00000397
     377         -0.637901        1.000000        0.00056117        0.00003039