# Projected DOS for list 278 of 1 atoms, at iteration step i = 0, E(Fermi) =    -0.245567 a.u.
#     MO Eigenvalue [a.u.]      Occupation                 s                 p
       1         -3.122063        1.000000        0.00000024        0.00000539
       2         -3.121278        1.000000        0.00000001        0.00000325
       3         -3.121021        1.000000        0.00000003        0.00000198
       4         -3.120578        1.000000        0.00000042        0.00002279
       5         -3.120271        1.000000        0.00000002        0.00000152
       6         -3.119857        1.000000        0.00000005        0.00000529
       7         -3.119652        1.000000        0.00000000        0.00000022
       8         -3.119624        1.000000        0.00000007        0.00000218
       9         -3.119219        1.000000        0.00000004        0.00000050
      10         -3.119023        1.000000        0.00000000        0.00000051
      11         -3.118913        1.000000        0.00000001        0.00000052
      12         -3.118874        1.000000        0.00000001        0.00000047
      13         -3.118317        1.000000        0.00000000        0.00000001
      14         -3.118249        1.000000        0.00000000        0.00000001
      15         -3.117895        1.000000        0.00000000        0.00000002
      16         -3.117383        1.000000        0.00000096        0.00000768
      17         -3.117165        1.000000        0.00000000        0.00000000
      18         -3.116815        1.000000        0.00000007        0.00000008
      19         -3.116436        1.000000        0.00000002        0.00000031
      20         -3.116021        1.000000        0.00000000        0.00000035
      21         -3.115852        1.000000        0.00000003        0.00000089
      22         -3.115668        1.000000        0.00000000        0.00000008
      23         -3.115368        1.000000        0.00000000        0.00000018
      24         -3.115339        1.000000        0.00000000        0.00000040
      25         -3.115041        1.000000        0.00000001        0.00000005
      26         -3.114366        1.000000        0.00000000        0.00000000
      27         -3.113951        1.000000        0.00000001        0.00000078
      28         -3.113764        1.000000        0.00000000        0.00000000
      29         -3.112534        1.000000        0.00000000        0.00000001
      30         -3.111679        1.000000        0.00000000        0.00000000
      31         -1.784233        1.000000        0.00000002        0.00000007
      32         -1.782870        1.000000        0.00000001        0.00000004
      33         -1.782324        1.000000        0.00000002        0.00000016
      34         -1.782130        1.000000        0.00000009        0.00000022
      35         -1.781736        1.000000        0.00000000        0.00000002
      36         -1.781230        1.000000        0.00000001        0.00000003
      37         -1.780847        1.000000        0.00000002        0.00000004
      38         -1.780487        1.000000        0.00000003        0.00000012
      39         -1.780184        1.000000        0.00000000        0.00000003
      40         -1.779550        1.000000        0.00000001        0.00000005
      41         -1.779259        1.000000        0.00000000        0.00000003
      42         -1.778921        1.000000        0.00000001        0.00000012
      43         -1.778390        1.000000        0.00000001        0.00000009
      44         -1.778140        1.000000        0.00000001        0.00000005
      45         -1.777912        1.000000        0.00000001        0.00000003
      46         -1.777514        1.000000        0.00000002        0.00000019
      47         -1.777362        1.000000        0.00000000        0.00000013
      48         -1.776787        1.000000        0.00000004        0.00000016
      49         -1.776537        1.000000        0.00000001        0.00000004
      50         -1.776457        1.000000        0.00000000        0.00000007
      51         -1.776029        1.000000        0.00000000        0.00000002
      52         -1.774038        1.000000        0.00000000        0.00000013
      53         -1.773797        1.000000        0.00000001        0.00000058
      54         -1.773665        1.000000        0.00000002        0.00000009
      55         -1.772725        1.000000        0.00000002        0.00000006
      56         -1.772546        1.000000        0.00000000        0.00000009
      57         -1.772041        1.000000        0.00000001        0.00000018
      58         -1.771662        1.000000        0.00000000        0.00000001
      59         -1.771364        1.000000        0.00000000        0.00000003
      60         -1.770813        1.000000        0.00000001        0.00000006
      61         -1.770640        1.000000        0.00000000        0.00000005
      62         -1.770449        1.000000        0.00000000        0.00000007
      63         -1.770188        1.000000        0.00000000        0.00000012
      64         -1.770126        1.000000        0.00000004        0.00000025
      65         -1.769991        1.000000        0.00000006        0.00000025
      66         -1.769845        1.000000        0.00000000        0.00000002
      67         -1.769763        1.000000        0.00000001        0.00000016
      68         -1.769661        1.000000        0.00000001        0.00000017
      69         -1.769465        1.000000        0.00000002        0.00000002
      70         -1.769351        1.000000        0.00000000        0.00000002
      71         -1.769328        1.000000        0.00000007        0.00000028
      72         -1.769216        1.000000        0.00000001        0.00000012
      73         -1.769129        1.000000        0.00000002        0.00000004
      74         -1.769070        1.000000        0.00000001        0.00000008
      75         -1.768941        1.000000        0.00000002        0.00000003
      76         -1.768822        1.000000        0.00000001        0.00000004
      77         -1.768707        1.000000        0.00000001        0.00000003
      78         -1.768585        1.000000        0.00000001        0.00000005
      79         -1.768439        1.000000        0.00000004        0.00000006
      80         -1.768329        1.000000        0.00000000        0.00000001
      81         -1.768089        1.000000        0.00000004        0.00000010
      82         -1.767883        1.000000        0.00000001        0.00000003
      83         -1.767662        1.000000        0.00000000        0.00000005
      84         -1.767495        1.000000        0.00000000        0.00000002
      85         -1.767311        1.000000        0.00000000        0.00000006
      86         -1.767266        1.000000        0.00000001        0.00000020
      87         -1.767060        1.000000        0.00000001        0.00000003
      88         -1.767025        1.000000        0.00000001        0.00000001
      89         -1.766872        1.000000        0.00000005        0.00000022
      90         -1.766524        1.000000        0.00000000        0.00000001
      91         -1.766405        1.000000        0.00000000        0.00000003
      92         -1.766254        1.000000        0.00000000        0.00000001
      93         -1.766123        1.000000        0.00000000        0.00000000
      94         -1.765857        1.000000        0.00000000        0.00000000
      95         -1.765515        1.000000        0.00000000        0.00000000
      96         -1.765181        1.000000        0.00000000        0.00000000
      97         -1.765105        1.000000        0.00000000        0.00000002
      98         -1.764967        1.000000        0.00000001        0.00000006
      99         -1.764710        1.000000        0.00000000        0.00000000
     100         -1.764440        1.000000        0.00000000        0.00000000
     101         -1.764248        1.000000        0.00000001        0.00000004
     102         -1.763945        1.000000        0.00000000        0.00000002
     103         -1.763804        1.000000        0.00000000        0.00000002
     104         -1.763351        1.000000        0.00000000        0.00000003
     105         -1.763205        1.000000        0.00000000        0.00000001
     106         -1.763107        1.000000        0.00000000        0.00000003
     107         -1.762531        1.000000        0.00000001        0.00000011
     108         -1.762343        1.000000        0.00000000        0.00000001
     109         -1.761453        1.000000        0.00000000        0.00000001
     110         -1.760969        1.000000        0.00000000        0.00000000
     111         -1.760481        1.000000        0.00000000        0.00000001
     112         -1.760009        1.000000        0.00000000        0.00000001
     113         -1.759531        1.000000        0.00000000        0.00000001
     114         -1.759105        1.000000        0.00000000        0.00000000
     115         -1.758777        1.000000        0.00000000        0.00000000
     116         -1.757462        1.000000        0.00000000        0.00000000
     117         -1.756221        1.000000        0.00000000        0.00000000
     118         -1.755333        1.000000        0.00000000        0.00000000
     119         -1.754385        1.000000        0.00000000        0.00000000
     120         -1.752742        1.000000        0.00000000        0.00000000
     121         -1.131181        1.000000        0.00217355        0.00183187
     122         -1.128658        1.000000        0.00495737        0.00425272
     123         -1.128000        1.000000        0.00482845        0.00393624
     124         -1.126427        1.000000        0.00029035        0.00024139
     125         -1.120469        1.000000        0.00007533        0.00009195
     126         -1.119202        1.000000        0.00008100        0.00018352
     127         -1.117081        1.000000        0.00421041        0.00286013
     128         -1.116156        1.000000        0.00001797        0.00011044
     129         -1.115054        1.000000        0.00019353        0.00015467
     130         -1.111818        1.000000        0.00192489        0.00147170
     131         -1.111610        1.000000        0.00063852        0.00047548
     132         -1.110976        1.000000        0.00004260        0.00008794
     133         -1.109888        1.000000        0.00012776        0.00025724
     134         -1.108601        1.000000        0.00009181        0.00007853
     135         -1.108036        1.000000        0.00006713        0.00007239
     136         -1.107349        1.000000        0.00019928        0.00014777
     137         -1.106797        1.000000        0.00003799        0.00003052
     138         -1.106077        1.000000        0.00012577        0.00016746
     139         -1.104162        1.000000        0.00002437        0.00017608
     140         -1.102892        1.000000        0.00000186        0.00019821
     141         -1.102196        1.000000        0.00061023        0.00026270
     142         -1.101581        1.000000        0.00048303        0.00035050
     143         -1.101215        1.000000        0.00000712        0.00007527
     144         -1.099602        1.000000        0.00009846        0.00011680
     145         -1.098107        1.000000        0.00140163        0.00072430
     146         -1.097450        1.000000        0.00033291        0.00027639
     147         -1.097046        1.000000        0.00002007        0.00001281
     148         -1.095795        1.000000        0.00002600        0.00004571
     149         -1.095192        1.000000        0.00004291        0.00005716
     150         -1.093515        1.000000        0.00016473        0.00008717
     151         -1.093123        1.000000        0.00009516        0.00007847
     152         -1.092614        1.000000        0.00045890        0.00025094
     153         -1.091821        1.000000        0.00106374        0.00069855
     154         -1.090761        1.000000        0.00012046        0.00018009
     155         -1.090597        1.000000        0.00248242        0.00166567
     156         -1.089544        1.000000        0.00409595        0.00248752
     157         -1.088154        1.000000        0.00010266        0.00008248
     158         -1.086960        1.000000        0.00089312        0.00073127
     159         -1.086718        1.000000        0.00004670        0.00006134
     160         -1.085525        1.000000        0.00971882        0.00512395
     161         -1.084219        1.000000        0.00000919        0.00001716
     162         -1.082734        1.000000        0.00002288        0.00007174
     163         -1.082381        1.000000        0.00125536        0.00045697
     164         -1.080807        1.000000        0.00099441        0.00059907
     165         -1.080293        1.000000        0.00119289        0.00058994
     166         -1.079453        1.000000        0.00023095        0.00008430
     167         -1.078246        1.000000        0.00006214        0.00001534
     168         -1.077774        1.000000        0.00139539        0.00074470
     169         -1.077143        1.000000        0.00054064        0.00020781
     170         -1.076426        1.000000        0.00002900        0.00009174
     171         -1.076145        1.000000        0.00001486        0.00006357
     172         -1.074526        1.000000        0.00013559        0.00014760
     173         -1.074368        1.000000        0.00034618        0.00012397
     174         -1.073652        1.000000        0.00024270        0.00018290
     175         -1.072808        1.000000        0.00255633        0.00118394
     176         -1.072152        1.000000        0.00013324        0.00008453
     177         -1.071192        1.000000        0.00133306        0.00057214
     178         -1.070444        1.000000        0.00081624        0.00033288
     179         -1.070141        1.000000        0.00022454        0.00012296
     180         -1.069416        1.000000        0.00119497        0.00054174
     181         -1.069179        1.000000        0.00217425        0.00099851
     182         -1.067610        1.000000        0.00146265        0.00052656
     183         -1.066240        1.000000        0.00090338        0.00027841
     184         -1.065124        1.000000        0.00000070        0.00000903
     185         -1.064565        1.000000        0.00000033        0.00000477
     186         -1.063575        1.000000        0.00273826        0.00124384
     187         -1.062901        1.000000        0.00041891        0.00018646
     188         -1.062274        1.000000        0.00032882        0.00016941
     189         -1.061481        1.000000        0.00122425        0.00064628
     190         -1.061312        1.000000        0.00089665        0.00031083
     191         -1.060592        1.000000        0.00012972        0.00004827
     192         -1.059297        1.000000        0.00116682        0.00066062
     193         -1.058643        1.000000        0.00029978        0.00008190
     194         -1.058262        1.000000        0.00092866        0.00031868
     195         -1.057127        1.000000        0.01569040        0.00637810
     196         -1.056224        1.000000        0.01538221        0.00640460
     197         -1.056050        1.000000        0.04734292        0.01988902
     198         -1.054881        1.000000        0.01147212        0.00494793
     199         -1.054669        1.000000        0.00489105        0.00189869
     200         -1.053605        1.000000        0.00314863        0.00149829
     201         -1.053457        1.000000        0.00015609        0.00008278
     202         -1.052589        1.000000        0.00101023        0.00039266
     203         -1.052089        1.000000        0.00003804        0.00002014
     204         -1.051299        1.000000        0.00005091        0.00000918
     205         -1.050676        1.000000        0.00125005        0.00062612
     206         -1.050307        1.000000        0.00002896        0.00000309
     207         -1.049921        1.000000        0.00055723        0.00026089
     208         -1.049485        1.000000        0.00008954        0.00005960
     209         -1.049126        1.000000        0.00000910        0.00000503
     210         -1.048445        1.000000        0.00070180        0.00023818
     211         -1.048201        1.000000        0.00001058        0.00000942
     212         -1.047911        1.000000        0.00000407        0.00001025
     213         -1.047620        1.000000        0.00001365        0.00000900
     214         -1.046931        1.000000        0.00000246        0.00003177
     215         -1.046733        1.000000        0.00010389        0.00001623
     216         -1.046634        1.000000        0.00001877        0.00001142
     217         -1.045930        1.000000        0.00000549        0.00000329
     218         -1.045069        1.000000        0.00001319        0.00002767
     219         -1.044350        1.000000        0.00000380        0.00000258
     220         -1.043623        1.000000        0.00000139        0.00000704
     221         -1.043421        1.000000        0.00002034        0.00000525
     222         -1.042778        1.000000        0.00000565        0.00000017
     223         -1.042701        1.000000        0.00003353        0.00003274
     224         -1.042424        1.000000        0.00007181        0.00005584
     225         -1.041682        1.000000        0.00000289        0.00000157
     226         -1.041498        1.000000        0.00002446        0.00001561
     227         -1.040837        1.000000        0.00000140        0.00000041
     228         -1.040496        1.000000        0.00003489        0.00001380
     229         -1.040151        1.000000        0.00001064        0.00001820
     230         -1.039686        1.000000        0.00002106        0.00001633
     231         -1.038961        1.000000        0.00000478        0.00000229
     232         -1.038553        1.000000        0.00000003        0.00000512
     233         -1.038476        1.000000        0.00000208        0.00001567
     234         -1.038152        1.000000        0.00002385        0.00000909
     235         -1.038041        1.000000        0.00000142        0.00000119
     236         -1.036855        1.000000        0.00001216        0.00002683
     237         -1.036488        1.000000        0.00016373        0.00011132
     238         -1.036186        1.000000        0.00000146        0.00000061
     239         -1.036068        1.000000        0.00012962        0.00004411
     240         -1.035757        1.000000        0.00001052        0.00001103
     241         -1.035291        1.000000        0.00005033        0.00002697
     242         -1.035048        1.000000        0.00006252        0.00003632
     243         -1.035000        1.000000        0.00000130        0.00000581
     244         -1.034454        1.000000        0.00000708        0.00000121
     245         -1.034219        1.000000        0.00005336        0.00000933
     246         -1.033874        1.000000        0.00000073        0.00000704
     247         -1.033507        1.000000        0.00002054        0.00000850
     248         -1.033219        1.000000        0.00000560        0.00000137
     249         -1.033056        1.000000        0.00000159        0.00000144
     250         -1.032307        1.000000        0.00001950        0.00001854
     251         -1.031324        1.000000        0.00001224        0.00000239
     252         -1.031144        1.000000        0.00014355        0.00005177
     253         -1.030643        1.000000        0.00020423        0.00011592
     254         -1.030284        1.000000        0.00000290        0.00001950
     255         -1.030062        1.000000        0.00000438        0.00000314
     256         -1.029818        1.000000        0.00000997        0.00001624
     257         -1.028552        1.000000        0.00000014        0.00000054
     258         -1.027578        1.000000        0.00001345        0.00000252
     259         -1.027121        1.000000        0.00000444        0.00000106
     260         -1.026880        1.000000        0.00000406        0.00000052
     261         -1.026226        1.000000        0.00002426        0.00000504
     262         -1.025765        1.000000        0.00000000        0.00000000
     263         -1.025299        1.000000        0.00000000        0.00000004
     264         -1.025158        1.000000        0.00000006        0.00000110
     265         -1.025007        1.000000        0.00000132        0.00000146
     266         -1.024422        1.000000        0.00003426        0.00000422
     267         -1.023793        1.000000        0.00000543        0.00000140
     268         -1.023594        1.000000        0.00000032        0.00000088
     269         -1.023069        1.000000        0.00004022        0.00001196
     270         -1.022603        1.000000        0.00002082        0.00000606
     271         -1.022074        1.000000        0.00021809        0.00004619
     272         -1.021695        1.000000        0.00003532        0.00000685
     273         -1.021372        1.000000        0.00000027        0.00000010
     274         -1.021076        1.000000        0.00003686        0.00000756
     275         -1.019492        1.000000        0.00001053        0.00000179
     276         -1.018003        1.000000        0.00000106        0.00000018
     277         -1.016408        1.000000        0.00000068        0.00000023
     278         -1.016278        1.000000        0.00000724        0.00000252
     279         -1.015338        1.000000        0.00000023        0.00000556
     280         -1.013851        1.000000        0.00000033        0.00000012
     281         -1.010223        1.000000        0.00001098        0.00000307
     282         -1.009666        1.000000        0.00000000        0.00000001
     283         -1.007726        1.000000        0.00000118        0.00000047
     284         -1.007300        1.000000        0.00000009        0.00000005
     285         -1.006916        1.000000        0.00000000        0.00000000
     286         -0.889442        1.000000        0.00000017        0.00006280
     287         -0.869424        1.000000        0.00000012        0.00005000
     288         -0.867225        1.000000        0.00000004        0.00004796
     289         -0.864755        1.000000        0.00000056        0.00001854
     290         -0.860947        1.000000        0.00000024        0.00003601
     291         -0.846899        1.000000        0.00000080        0.00001250
     292         -0.844423        1.000000        0.00000003        0.00000592
     293         -0.843782        1.000000        0.00000016        0.00001076
     294         -0.840445        1.000000        0.00000025        0.00005755
     295         -0.821748        1.000000        0.00000256        0.00002687
     296         -0.818927        1.000000        0.00000008        0.00000434
     297         -0.814033        1.000000        0.00000032        0.00008331
     298         -0.808071        1.000000        0.00000076        0.00000875
     299         -0.807076        1.000000        0.00000030        0.00000850
     300         -0.806003        1.000000        0.00000028        0.00000295
     301         -0.805433        1.000000        0.00000000        0.00000437
     302         -0.803208        1.000000        0.00000115        0.00000589
     303         -0.802271        1.000000        0.00000014        0.00001241
     304         -0.801014        1.000000        0.00000003        0.00000971
     305         -0.800419        1.000000        0.00000100        0.00004750
     306         -0.800163        1.000000        0.00000058        0.00005691
     307         -0.798966        1.000000        0.00000115        0.00001387
     308         -0.796270        1.000000        0.00000032        0.00000750
     309         -0.795746        1.000000        0.00000007        0.00000317
     310         -0.794333        1.000000        0.00000018        0.00004148
     311         -0.792293        1.000000        0.00000012        0.00000860
     312         -0.791548        1.000000        0.00000060        0.00001798
     313         -0.790603        1.000000        0.00000143        0.00001976
     314         -0.790424        1.000000        0.00000107        0.00001835
     315         -0.789930        1.000000        0.00000046        0.00000417
     316         -0.788450        1.000000        0.00000011        0.00000060
     317         -0.787526        1.000000        0.00000111        0.00002583
     318         -0.786788        1.000000        0.00000093        0.00000824
     319         -0.781836        1.000000        0.00000001        0.00000101
     320         -0.780998        1.000000        0.00000176        0.00002972
     321         -0.780477        1.000000        0.00000121        0.00002901
     322         -0.779060        1.000000        0.00000095        0.00002472
     323         -0.778943        1.000000        0.00000117        0.00002003
     324         -0.777233        1.000000        0.00000075        0.00001330
     325         -0.775897        1.000000        0.00000251        0.00002533
     326         -0.774887        1.000000        0.00000015        0.00000033
     327         -0.773671        1.000000        0.00000110        0.00001590
     328         -0.773422        1.000000        0.00000013        0.00000133
     329         -0.772414        1.000000        0.00000003        0.00000203
     330         -0.771266        1.000000        0.00000086        0.00000660
     331         -0.770604        1.000000        0.00000018        0.00000063
     332         -0.769886        1.000000        0.00000123        0.00001229
     333         -0.769439        1.000000        0.00000004        0.00000145
     334         -0.769009        1.000000        0.00000145        0.00001420
     335         -0.767483        1.000000        0.00000231        0.00002058
     336         -0.766717        1.000000        0.00000002        0.00000121
     337         -0.765490        1.000000        0.00000413        0.00003190
     338         -0.763700        1.000000        0.00000012        0.00000265
     339         -0.762625        1.000000        0.00000023        0.00000177
     340         -0.761653        1.000000        0.00000148        0.00001287
     341         -0.761196        1.000000        0.00000008        0.00000052
     342         -0.759265        1.000000        0.00000002        0.00000051
     343         -0.758410        1.000000        0.00000313        0.00002336
     344         -0.755260        1.000000        0.00000036        0.00000249
     345         -0.754586        1.000000        0.00000001        0.00000017
     346         -0.703685        1.000000        0.00024674        0.00003086
     347         -0.693847        1.000000        0.00014393        0.00001555
     348         -0.690060        1.000000        0.00147609        0.00016762
     349         -0.688902        1.000000        0.00038540        0.00003430
     350         -0.684111        1.000000        0.00255196        0.00024887
     351         -0.681092        1.000000        0.00031536        0.00004219
     352         -0.678905        1.000000        0.00058746        0.00007157
     353         -0.676982        1.000000        0.00006066        0.00000246
     354         -0.673929        1.000000        0.00215613        0.00015750
     355         -0.673106        1.000000        0.00000084        0.00000248
     356         -0.670728        1.000000        0.00004949        0.00001514
     357         -0.670092        1.000000        0.00112621        0.00006309
     358         -0.669168        1.000000        0.00000135        0.00000294
     359         -0.667801        1.000000        0.00063996        0.00005351
     360         -0.665884        1.000000        0.00157296        0.00007675
     361         -0.664702        1.000000        0.00024673        0.00000752
     362         -0.662263        1.000000        0.00233103        0.00021264
     363         -0.660875        1.000000        0.00001107        0.00001911
     364         -0.658191        1.000000        0.00003189        0.00002013
     365         -0.657373        1.000000        0.00016152        0.00002018
     366         -0.655967        1.000000        0.00002757        0.00001048
     367         -0.655536        1.000000        0.00004800        0.00003178
     368         -0.653752        1.000000        0.00057869        0.00009427
     369         -0.651127        1.000000        0.00057166        0.00001903
     370         -0.648938        1.000000        0.00001781        0.00000380
     371         -0.647875        1.000000        0.00081554        0.00005280
     372         -0.644925        1.000000        0.00001186        0.00001042
     373         -0.644581        1.000000        0.00107463        0.00007581
     374         -0.641910        1.000000        0.00170888        0.00006243
     375         -0.641212        1.000000        0.00017456        0.00001773
     376         -0.639876        1.000000        0.00001053        0.00000702
     377         -0.637901        1.000000        0.00107371        0.00008072