# Projected DOS for list 88 of 1 atoms, at iteration step i = 0, E(Fermi) =    -0.245567 a.u.
#     MO Eigenvalue [a.u.]      Occupation                 s                 p                 d
       1         -3.122063        1.000000        0.00000000        0.00000000        0.00000000
       2         -3.121278        1.000000        0.00000000        0.00000000        0.00000000
       3         -3.121021        1.000000        0.00000000        0.00000000        0.00000000
       4         -3.120578        1.000000        0.00000000        0.00000000        0.00000000
       5         -3.120271        1.000000        0.00000000        0.00000000        0.00000000
       6         -3.119857        1.000000        0.00000000        0.00000000        0.00000000
       7         -3.119652        1.000000        0.00000000        0.00000000        0.00000000
       8         -3.119624        1.000000        0.00000000        0.00000000        0.00000000
       9         -3.119219        1.000000        0.00000000        0.00000000        0.00000000
      10         -3.119023        1.000000        0.00000000        0.00000000        0.00000000
      11         -3.118913        1.000000        0.00000000        0.00000000        0.00000000
      12         -3.118874        1.000000        0.00000000        0.00000000        0.00000000
      13         -3.118317        1.000000        0.00000000        0.00000000        0.00000000
      14         -3.118249        1.000000        0.00000000        0.00000000        0.00000000
      15         -3.117895        1.000000        0.00000000        0.00000000        0.00000000
      16         -3.117383        1.000000        0.00000000        0.00000000        0.00000000
      17         -3.117165        1.000000        0.00000000        0.00000000        0.00000000
      18         -3.116815        1.000000        0.00000000        0.00000000        0.00000000
      19         -3.116436        1.000000        0.00000000        0.00000000        0.00000000
      20         -3.116021        1.000000        0.00000000        0.00000000        0.00000000
      21         -3.115852        1.000000        0.00000000        0.00000000        0.00000000
      22         -3.115668        1.000000        0.00000000        0.00000000        0.00000000
      23         -3.115368        1.000000        0.00000000        0.00000000        0.00000000
      24         -3.115339        1.000000        0.00000000        0.00000000        0.00000000
      25         -3.115041        1.000000        0.00000000        0.00000000        0.00000000
      26         -3.114366        1.000000        0.00000000        0.00000000        0.00000000
      27         -3.113951        1.000000        0.00000000        0.00000000        0.00000000
      28         -3.113764        1.000000        0.00000000        0.00000000        0.00000000
      29         -3.112534        1.000000        0.00000000        0.00000000        0.00000000
      30         -3.111679        1.000000        0.00000000        0.00000000        0.00000000
      31         -1.784233        1.000000        0.00000000        0.00000000        0.00000000
      32         -1.782870        1.000000        0.00000000        0.00000000        0.00000000
      33         -1.782324        1.000000        0.00000000        0.00000000        0.00000000
      34         -1.782130        1.000000        0.00000000        0.00000000        0.00000000
      35         -1.781736        1.000000        0.00000000        0.00000000        0.00000000
      36         -1.781230        1.000000        0.00000000        0.00000000        0.00000000
      37         -1.780847        1.000000        0.00000000        0.00000000        0.00000000
      38         -1.780487        1.000000        0.00000000        0.00000000        0.00000000
      39         -1.780184        1.000000        0.00000000        0.00000000        0.00000000
      40         -1.779550        1.000000        0.00000000        0.00000000        0.00000000
      41         -1.779259        1.000000        0.00000000        0.00000000        0.00000000
      42         -1.778921        1.000000        0.00000000        0.00000000        0.00000000
      43         -1.778390        1.000000        0.00000000        0.00000000        0.00000000
      44         -1.778140        1.000000        0.00000000        0.00000000        0.00000000
      45         -1.777912        1.000000        0.00000000        0.00000000        0.00000000
      46         -1.777514        1.000000        0.00000000        0.00000000        0.00000000
      47         -1.777362        1.000000        0.00000000        0.00000000        0.00000000
      48         -1.776787        1.000000        0.00000000        0.00000000        0.00000000
      49         -1.776537        1.000000        0.00000000        0.00000000        0.00000000
      50         -1.776457        1.000000        0.00000000        0.00000000        0.00000000
      51         -1.776029        1.000000        0.00000000        0.00000000        0.00000000
      52         -1.774038        1.000000        0.00000000        0.00000000        0.00000000
      53         -1.773797        1.000000        0.00000000        0.00000000        0.00000000
      54         -1.773665        1.000000        0.00000000        0.00000000        0.00000000
      55         -1.772725        1.000000        0.00000000        0.00000000        0.00000000
      56         -1.772546        1.000000        0.00000000        0.00000000        0.00000000
      57         -1.772041        1.000000        0.00000000        0.00000000        0.00000000
      58         -1.771662        1.000000        0.00000000        0.00000000        0.00000000
      59         -1.771364        1.000000        0.00000000        0.00000000        0.00000000
      60         -1.770813        1.000000        0.00000000        0.00000000        0.00000000
      61         -1.770640        1.000000        0.00000000        0.00000000        0.00000000
      62         -1.770449        1.000000        0.00000000        0.00000000        0.00000000
      63         -1.770188        1.000000        0.00000000        0.00000000        0.00000000
      64         -1.770126        1.000000        0.00000000        0.00000000        0.00000000
      65         -1.769991        1.000000        0.00000000        0.00000000        0.00000000
      66         -1.769845        1.000000        0.00000000        0.00000000        0.00000000
      67         -1.769763        1.000000        0.00000000        0.00000000        0.00000000
      68         -1.769661        1.000000        0.00000000        0.00000000        0.00000000
      69         -1.769465        1.000000        0.00000000        0.00000000        0.00000000
      70         -1.769351        1.000000        0.00000000        0.00000000        0.00000000
      71         -1.769328        1.000000        0.00000000        0.00000000        0.00000000
      72         -1.769216        1.000000        0.00000000        0.00000000        0.00000000
      73         -1.769129        1.000000        0.00000000        0.00000000        0.00000000
      74         -1.769070        1.000000        0.00000000        0.00000000        0.00000000
      75         -1.768941        1.000000        0.00000000        0.00000000        0.00000000
      76         -1.768822        1.000000        0.00000000        0.00000000        0.00000000
      77         -1.768707        1.000000        0.00000000        0.00000000        0.00000000
      78         -1.768585        1.000000        0.00000000        0.00000000        0.00000000
      79         -1.768439        1.000000        0.00000000        0.00000000        0.00000000
      80         -1.768329        1.000000        0.00000000        0.00000000        0.00000000
      81         -1.768089        1.000000        0.00000000        0.00000000        0.00000000
      82         -1.767883        1.000000        0.00000000        0.00000000        0.00000000
      83         -1.767662        1.000000        0.00000000        0.00000000        0.00000000
      84         -1.767495        1.000000        0.00000000        0.00000000        0.00000000
      85         -1.767311        1.000000        0.00000000        0.00000000        0.00000000
      86         -1.767266        1.000000        0.00000000        0.00000000        0.00000000
      87         -1.767060        1.000000        0.00000000        0.00000000        0.00000000
      88         -1.767025        1.000000        0.00000000        0.00000000        0.00000000
      89         -1.766872        1.000000        0.00000000        0.00000000        0.00000000
      90         -1.766524        1.000000        0.00000000        0.00000000        0.00000000
      91         -1.766405        1.000000        0.00000000        0.00000000        0.00000000
      92         -1.766254        1.000000        0.00000000        0.00000000        0.00000000
      93         -1.766123        1.000000        0.00000000        0.00000000        0.00000000
      94         -1.765857        1.000000        0.00000000        0.00000000        0.00000000
      95         -1.765515        1.000000        0.00000000        0.00000000        0.00000000
      96         -1.765181        1.000000        0.00000000        0.00000000        0.00000000
      97         -1.765105        1.000000        0.00000000        0.00000000        0.00000000
      98         -1.764967        1.000000        0.00000000        0.00000000        0.00000000
      99         -1.764710        1.000000        0.00000000        0.00000000        0.00000000
     100         -1.764440        1.000000        0.00000000        0.00000000        0.00000000
     101         -1.764248        1.000000        0.00000000        0.00000000        0.00000000
     102         -1.763945        1.000000        0.00000000        0.00000000        0.00000000
     103         -1.763804        1.000000        0.00000000        0.00000000        0.00000000
     104         -1.763351        1.000000        0.00000000        0.00000000        0.00000000
     105         -1.763205        1.000000        0.00000000        0.00000000        0.00000000
     106         -1.763107        1.000000        0.00000000        0.00000000        0.00000000
     107         -1.762531        1.000000        0.00000000        0.00000000        0.00000000
     108         -1.762343        1.000000        0.00000000        0.00000000        0.00000000
     109         -1.761453        1.000000        0.00000000        0.00000000        0.00000000
     110         -1.760969        1.000000        0.00000000        0.00000000        0.00000000
     111         -1.760481        1.000000        0.00000000        0.00000000        0.00000000
     112         -1.760009        1.000000        0.00000000        0.00000000        0.00000000
     113         -1.759531        1.000000        0.00000000        0.00000000        0.00000000
     114         -1.759105        1.000000        0.00000000        0.00000000        0.00000000
     115         -1.758777        1.000000        0.00000000        0.00000000        0.00000000
     116         -1.757462        1.000000        0.00000000        0.00000000        0.00000000
     117         -1.756221        1.000000        0.00000000        0.00000000        0.00000000
     118         -1.755333        1.000000        0.00000000        0.00000000        0.00000000
     119         -1.754385        1.000000        0.00000000        0.00000000        0.00000000
     120         -1.752742        1.000000        0.00000000        0.00000000        0.00000000
     121         -1.131181        1.000000        0.03112095        0.00195176        0.00081054
     122         -1.128658        1.000000        0.01922352        0.00286017        0.00048422
     123         -1.128000        1.000000        0.00038175        0.00009811        0.00001572
     124         -1.126427        1.000000        0.00078476        0.00024350        0.00003488
     125         -1.120469        1.000000        0.00170790        0.00031244        0.00003493
     126         -1.119202        1.000000        0.00073821        0.00096956        0.00002353
     127         -1.117081        1.000000        0.00124787        0.00050514        0.00002889
     128         -1.116156        1.000000        0.00155249        0.00038874        0.00002572
     129         -1.115054        1.000000        0.00794599        0.00038383        0.00012961
     130         -1.111818        1.000000        0.00437932        0.00036124        0.00006523
     131         -1.111610        1.000000        0.00026684        0.00004869        0.00000359
     132         -1.110976        1.000000        0.00014207        0.00003784        0.00001315
     133         -1.109888        1.000000        0.00120782        0.00069447        0.00004213
     134         -1.108601        1.000000        0.00004963        0.00025428        0.00000650
     135         -1.108036        1.000000        0.00603623        0.00035451        0.00008715
     136         -1.107349        1.000000        0.00237330        0.00038574        0.00003707
     137         -1.106797        1.000000        0.00241894        0.00042201        0.00004193
     138         -1.106077        1.000000        0.00083928        0.00001822        0.00001492
     139         -1.104162        1.000000        0.00002575        0.00000795        0.00000557
     140         -1.102892        1.000000        0.01726932        0.00073879        0.00016930
     141         -1.102196        1.000000        0.00020190        0.00037054        0.00006304
     142         -1.101581        1.000000        0.00133976        0.00005945        0.00004447
     143         -1.101215        1.000000        0.00263020        0.00050893        0.00005437
     144         -1.099602        1.000000        0.00552396        0.00022994        0.00006974
     145         -1.098107        1.000000        0.00125133        0.00009511        0.00004468
     146         -1.097450        1.000000        0.00094684        0.00034758        0.00004526
     147         -1.097046        1.000000        0.00444285        0.00074532        0.00012739
     148         -1.095795        1.000000        0.00044864        0.00026441        0.00002001
     149         -1.095192        1.000000        0.00944004        0.00021142        0.00005929
     150         -1.093515        1.000000        0.00632928        0.00106611        0.00010231
     151         -1.093123        1.000000        0.00426515        0.00012572        0.00004714
     152         -1.092614        1.000000        0.01712563        0.00077707        0.00017893
     153         -1.091821        1.000000        0.00215370        0.00017669        0.00002384
     154         -1.090761        1.000000        0.00056418        0.00001627        0.00003206
     155         -1.090597        1.000000        0.00189530        0.00002983        0.00002838
     156         -1.089544        1.000000        0.00207500        0.00008158        0.00001819
     157         -1.088154        1.000000        0.00450503        0.00012771        0.00002959
     158         -1.086960        1.000000        0.00359358        0.00022568        0.00003050
     159         -1.086718        1.000000        0.00363931        0.00007405        0.00001530
     160         -1.085525        1.000000        0.00020084        0.00002881        0.00000540
     161         -1.084219        1.000000        0.00011292        0.00020086        0.00000503
     162         -1.082734        1.000000        0.00704693        0.00017702        0.00004223
     163         -1.082381        1.000000        0.00240509        0.00071269        0.00003091
     164         -1.080807        1.000000        0.00119673        0.00041014        0.00001205
     165         -1.080293        1.000000        0.00792375        0.00049849        0.00006252
     166         -1.079453        1.000000        0.00042745        0.00000840        0.00001757
     167         -1.078246        1.000000        0.03373992        0.00080404        0.00007951
     168         -1.077774        1.000000        0.00001860        0.00000232        0.00001647
     169         -1.077143        1.000000        0.01513818        0.00029256        0.00010298
     170         -1.076426        1.000000        0.00624747        0.00026478        0.00006450
     171         -1.076145        1.000000        0.00731588        0.00018905        0.00006021
     172         -1.074526        1.000000        0.00003675        0.00036380        0.00001167
     173         -1.074368        1.000000        0.00567737        0.00053283        0.00008964
     174         -1.073652        1.000000        0.00071538        0.00006970        0.00001590
     175         -1.072808        1.000000        0.00419890        0.00007446        0.00000911
     176         -1.072152        1.000000        0.00126949        0.00016656        0.00002205
     177         -1.071192        1.000000        0.00013159        0.00001946        0.00002222
     178         -1.070444        1.000000        0.00567732        0.00014377        0.00004399
     179         -1.070141        1.000000        0.00385386        0.00015654        0.00002238
     180         -1.069416        1.000000        0.00513756        0.00005980        0.00002911
     181         -1.069179        1.000000        0.00056938        0.00005458        0.00002058
     182         -1.067610        1.000000        0.00001857        0.00011618        0.00001628
     183         -1.066240        1.000000        0.00196287        0.00005576        0.00001125
     184         -1.065124        1.000000        0.01931131        0.00020351        0.00003453
     185         -1.064565        1.000000        0.00424533        0.00006589        0.00002579
     186         -1.063575        1.000000        0.00102957        0.00002225        0.00001765
     187         -1.062901        1.000000        0.01210317        0.00014359        0.00005889
     188         -1.062274        1.000000        0.00362757        0.00015823        0.00001028
     189         -1.061481        1.000000        0.00262618        0.00003512        0.00002371
     190         -1.061312        1.000000        0.00232219        0.00008877        0.00003395
     191         -1.060592        1.000000        0.00131445        0.00003484        0.00000817
     192         -1.059297        1.000000        0.00519469        0.00007501        0.00001314
     193         -1.058643        1.000000        0.00071136        0.00023145        0.00000767
     194         -1.058262        1.000000        0.00460712        0.00012434        0.00001411
     195         -1.057127        1.000000        0.00195648        0.00002394        0.00000923
     196         -1.056224        1.000000        0.00026561        0.00002684        0.00000144
     197         -1.056050        1.000000        0.00546135        0.00025223        0.00001899
     198         -1.054881        1.000000        0.00199385        0.00005624        0.00000239
     199         -1.054669        1.000000        0.03058319        0.00081303        0.00007751
     200         -1.053605        1.000000        0.00458937        0.00005668        0.00000926
     201         -1.053457        1.000000        0.00110039        0.00001406        0.00000918
     202         -1.052589        1.000000        0.00351762        0.00003515        0.00000613
     203         -1.052089        1.000000        0.00248113        0.00008156        0.00002659
     204         -1.051299        1.000000        0.00641639        0.00022735        0.00001571
     205         -1.050676        1.000000        0.00099587        0.00002257        0.00001796
     206         -1.050307        1.000000        0.00620450        0.00013751        0.00001861
     207         -1.049921        1.000000        0.00389425        0.00004277        0.00002470
     208         -1.049485        1.000000        0.00514895        0.00013541        0.00003837
     209         -1.049126        1.000000        0.00444885        0.00005824        0.00000438
     210         -1.048445        1.000000        0.00137863        0.00003287        0.00000489
     211         -1.048201        1.000000        0.02688504        0.00065646        0.00001008
     212         -1.047911        1.000000        0.00000692        0.00001579        0.00004403
     213         -1.047620        1.000000        0.05289526        0.00068748        0.00001816
     214         -1.046931        1.000000        0.00645243        0.00008901        0.00003325
     215         -1.046733        1.000000        0.00103112        0.00003519        0.00001031
     216         -1.046634        1.000000        0.00157357        0.00007125        0.00003238
     217         -1.045930        1.000000        0.01149853        0.00019280        0.00001093
     218         -1.045069        1.000000        0.00618247        0.00012019        0.00003582
     219         -1.044350        1.000000        0.00001138        0.00007301        0.00010517
     220         -1.043623        1.000000        0.00058124        0.00001659        0.00000872
     221         -1.043421        1.000000        0.00046248        0.00000880        0.00000437
     222         -1.042778        1.000000        0.01393204        0.00035667        0.00015116
     223         -1.042701        1.000000        0.00003167        0.00000378        0.00000957
     224         -1.042424        1.000000        0.00143993        0.00009591        0.00003850
     225         -1.041682        1.000000        0.00001223        0.00001889        0.00001245
     226         -1.041498        1.000000        0.00014111        0.00000530        0.00001352
     227         -1.040837        1.000000        0.00000146        0.00001310        0.00001571
     228         -1.040496        1.000000        0.00010331        0.00002179        0.00001644
     229         -1.040151        1.000000        0.00119994        0.00002466        0.00001229
     230         -1.039686        1.000000        0.00061377        0.00002001        0.00002408
     231         -1.038961        1.000000        0.00000260        0.00000866        0.00001566
     232         -1.038553        1.000000        0.00012209        0.00005163        0.00003887
     233         -1.038476        1.000000        0.00004519        0.00001744        0.00006361
     234         -1.038152        1.000000        0.00102773        0.00002590        0.00004241
     235         -1.038041        1.000000        0.00016343        0.00003231        0.00004550
     236         -1.036855        1.000000        0.00197979        0.00012607        0.00007263
     237         -1.036488        1.000000        0.00267617        0.00005926        0.00003224
     238         -1.036186        1.000000        0.00027300        0.00009233        0.00016582
     239         -1.036068        1.000000        0.00254634        0.00010488        0.00005168
     240         -1.035757        1.000000        0.00053630        0.00001152        0.00001595
     241         -1.035291        1.000000        0.00018358        0.00005410        0.00002033
     242         -1.035048        1.000000        0.00061271        0.00004769        0.00001852
     243         -1.035000        1.000000        0.00020267        0.00007591        0.00006148
     244         -1.034454        1.000000        0.00121171        0.00021164        0.00017207
     245         -1.034219        1.000000        0.00034323        0.00002557        0.00002195
     246         -1.033874        1.000000        0.00124217        0.00006402        0.00005584
     247         -1.033507        1.000000        0.00015790        0.00000565        0.00000055
     248         -1.033219        1.000000        0.00005978        0.00002583        0.00002971
     249         -1.033056        1.000000        0.00027791        0.00005001        0.00001082
     250         -1.032307        1.000000        0.00000009        0.00000222        0.00000878
     251         -1.031324        1.000000        0.00050222        0.00002751        0.00000498
     252         -1.031144        1.000000        0.00000955        0.00000459        0.00000119
     253         -1.030643        1.000000        0.00000070        0.00000091        0.00000306
     254         -1.030284        1.000000        0.00000514        0.00000392        0.00000134
     255         -1.030062        1.000000        0.00003277        0.00000400        0.00000033
     256         -1.029818        1.000000        0.00000024        0.00000285        0.00000131
     257         -1.028552        1.000000        0.00001865        0.00000146        0.00000255
     258         -1.027578        1.000000        0.00000334        0.00000354        0.00000033
     259         -1.027121        1.000000        0.00000582        0.00000216        0.00000165
     260         -1.026880        1.000000        0.00000116        0.00000081        0.00000072
     261         -1.026226        1.000000        0.00000150        0.00000231        0.00000064
     262         -1.025765        1.000000        0.00004501        0.00000360        0.00000045
     263         -1.025299        1.000000        0.00000021        0.00000009        0.00000013
     264         -1.025158        1.000000        0.00002724        0.00000924        0.00000174
     265         -1.025007        1.000000        0.00005257        0.00000434        0.00000034
     266         -1.024422        1.000000        0.00003636        0.00001270        0.00000999
     267         -1.023793        1.000000        0.00000386        0.00000155        0.00000016
     268         -1.023594        1.000000        0.00005855        0.00000275        0.00000057
     269         -1.023069        1.000000        0.00001902        0.00000083        0.00000119
     270         -1.022603        1.000000        0.00001912        0.00000044        0.00000009
     271         -1.022074        1.000000        0.00001121        0.00000287        0.00000029
     272         -1.021695        1.000000        0.00000423        0.00000034        0.00000003
     273         -1.021372        1.000000        0.00000015        0.00000024        0.00000013
     274         -1.021076        1.000000        0.00006065        0.00000469        0.00000155
     275         -1.019492        1.000000        0.00000100        0.00000054        0.00000017
     276         -1.018003        1.000000        0.00011646        0.00001346        0.00000560
     277         -1.016408        1.000000        0.00001310        0.00000082        0.00000037
     278         -1.016278        1.000000        0.00010972        0.00000911        0.00000129
     279         -1.015338        1.000000        0.00000624        0.00000170        0.00000079
     280         -1.013851        1.000000        0.00006393        0.00000239        0.00000132
     281         -1.010223        1.000000        0.00000000        0.00000003        0.00000000
     282         -1.009666        1.000000        0.00001307        0.00000284        0.00000098
     283         -1.007726        1.000000        0.00000018        0.00000004        0.00000000
     284         -1.007300        1.000000        0.00000146        0.00000005        0.00000002
     285         -1.006916        1.000000        0.00000273        0.00000045        0.00000013
     286         -0.889442        1.000000        0.00000000        0.00000000        0.00000000
     287         -0.869424        1.000000        0.00000000        0.00000000        0.00000000
     288         -0.867225        1.000000        0.00000000        0.00000000        0.00000000
     289         -0.864755        1.000000        0.00000000        0.00000000        0.00000000
     290         -0.860947        1.000000        0.00000000        0.00000000        0.00000000
     291         -0.846899        1.000000        0.00000000        0.00000000        0.00000000
     292         -0.844423        1.000000        0.00000000        0.00000000        0.00000000
     293         -0.843782        1.000000        0.00000000        0.00000000        0.00000000
     294         -0.840445        1.000000        0.00000000        0.00000000        0.00000000
     295         -0.821748        1.000000        0.00000000        0.00000000        0.00000000
     296         -0.818927        1.000000        0.00000000        0.00000000        0.00000000
     297         -0.814033        1.000000        0.00000000        0.00000000        0.00000000
     298         -0.808071        1.000000        0.00000000        0.00000000        0.00000000
     299         -0.807076        1.000000        0.00000000        0.00000000        0.00000000
     300         -0.806003        1.000000        0.00000000        0.00000000        0.00000000
     301         -0.805433        1.000000        0.00000000        0.00000000        0.00000000
     302         -0.803208        1.000000        0.00000000        0.00000000        0.00000000
     303         -0.802271        1.000000        0.00000000        0.00000000        0.00000000
     304         -0.801014        1.000000        0.00000000        0.00000000        0.00000000
     305         -0.800419        1.000000        0.00000000        0.00000000        0.00000000
     306         -0.800163        1.000000        0.00000000        0.00000000        0.00000000
     307         -0.798966        1.000000        0.00000000        0.00000000        0.00000000