# Projected DOS for list 110 of 1 atoms, at iteration step i = 0, E(Fermi) =    -0.245567 a.u.
#     MO Eigenvalue [a.u.]      Occupation                 s                 p                 d
       1         -3.122063        1.000000        0.00000002        0.00000001        0.00000000
       2         -3.121278        1.000000        0.00000000        0.00000000        0.00000000
       3         -3.121021        1.000000        0.00000000        0.00000000        0.00000000
       4         -3.120578        1.000000        0.00000001        0.00000000        0.00000000
       5         -3.120271        1.000000        0.00000001        0.00000000        0.00000000
       6         -3.119857        1.000000        0.00000000        0.00000001        0.00000000
       7         -3.119652        1.000000        0.00000001        0.00000000        0.00000000
       8         -3.119624        1.000000        0.00000000        0.00000000        0.00000000
       9         -3.119219        1.000000        0.00000001        0.00000001        0.00000000
      10         -3.119023        1.000000        0.00000000        0.00000000        0.00000000
      11         -3.118913        1.000000        0.00000000        0.00000000        0.00000000
      12         -3.118874        1.000000        0.00000000        0.00000000        0.00000000
      13         -3.118317        1.000000        0.00000001        0.00000001        0.00000000
      14         -3.118249        1.000000        0.00000000        0.00000000        0.00000000
      15         -3.117895        1.000000        0.00000000        0.00000000        0.00000000
      16         -3.117383        1.000000        0.00000003        0.00000003        0.00000000
      17         -3.117165        1.000000        0.00000000        0.00000000        0.00000000
      18         -3.116815        1.000000        0.00000001        0.00000002        0.00000000
      19         -3.116436        1.000000        0.00000000        0.00000001        0.00000000
      20         -3.116021        1.000000        0.00000000        0.00000000        0.00000000
      21         -3.115852        1.000000        0.00000001        0.00000001        0.00000000
      22         -3.115668        1.000000        0.00000000        0.00000001        0.00000000
      23         -3.115368        1.000000        0.00000000        0.00000000        0.00000000
      24         -3.115339        1.000000        0.00000000        0.00000000        0.00000000
      25         -3.115041        1.000000        0.00000000        0.00000000        0.00000000
      26         -3.114366        1.000000        0.00000000        0.00000000        0.00000000
      27         -3.113951        1.000000        0.00000000        0.00000000        0.00000000
      28         -3.113764        1.000000        0.00000000        0.00000001        0.00000000
      29         -3.112534        1.000000        0.00000000        0.00000000        0.00000000
      30         -3.111679        1.000000        0.00000000        0.00000000        0.00000000
      31         -1.784233        1.000000        0.00000000        0.00000000        0.00000000
      32         -1.782870        1.000000        0.00000000        0.00000000        0.00000000
      33         -1.782324        1.000000        0.00000000        0.00000000        0.00000000
      34         -1.782130        1.000000        0.00000000        0.00000000        0.00000000
      35         -1.781736        1.000000        0.00000000        0.00000000        0.00000000
      36         -1.781230        1.000000        0.00000000        0.00000000        0.00000000
      37         -1.780847        1.000000        0.00000000        0.00000000        0.00000000
      38         -1.780487        1.000000        0.00000000        0.00000000        0.00000000
      39         -1.780184        1.000000        0.00000000        0.00000000        0.00000000
      40         -1.779550        1.000000        0.00000000        0.00000000        0.00000000
      41         -1.779259        1.000000        0.00000000        0.00000000        0.00000000
      42         -1.778921        1.000000        0.00000000        0.00000000        0.00000000
      43         -1.778390        1.000000        0.00000000        0.00000000        0.00000000
      44         -1.778140        1.000000        0.00000000        0.00000000        0.00000000
      45         -1.777912        1.000000        0.00000000        0.00000000        0.00000000
      46         -1.777514        1.000000        0.00000000        0.00000000        0.00000000
      47         -1.777362        1.000000        0.00000000        0.00000000        0.00000000
      48         -1.776787        1.000000        0.00000000        0.00000000        0.00000000
      49         -1.776537        1.000000        0.00000000        0.00000000        0.00000000
      50         -1.776457        1.000000        0.00000000        0.00000000        0.00000000
      51         -1.776029        1.000000        0.00000000        0.00000000        0.00000000
      52         -1.774038        1.000000        0.00000000        0.00000000        0.00000000
      53         -1.773797        1.000000        0.00000000        0.00000000        0.00000000
      54         -1.773665        1.000000        0.00000000        0.00000000        0.00000000
      55         -1.772725        1.000000        0.00000000        0.00000000        0.00000000
      56         -1.772546        1.000000        0.00000000        0.00000000        0.00000000
      57         -1.772041        1.000000        0.00000000        0.00000000        0.00000000
      58         -1.771662        1.000000        0.00000000        0.00000000        0.00000000
      59         -1.771364        1.000000        0.00000000        0.00000000        0.00000000
      60         -1.770813        1.000000        0.00000000        0.00000000        0.00000000
      61         -1.770640        1.000000        0.00000000        0.00000000        0.00000000
      62         -1.770449        1.000000        0.00000000        0.00000000        0.00000000
      63         -1.770188        1.000000        0.00000000        0.00000000        0.00000000
      64         -1.770126        1.000000        0.00000000        0.00000000        0.00000000
      65         -1.769991        1.000000        0.00000000        0.00000000        0.00000000
      66         -1.769845        1.000000        0.00000000        0.00000000        0.00000000
      67         -1.769763        1.000000        0.00000000        0.00000000        0.00000000
      68         -1.769661        1.000000        0.00000000        0.00000000        0.00000000
      69         -1.769465        1.000000        0.00000000        0.00000000        0.00000000
      70         -1.769351        1.000000        0.00000000        0.00000000        0.00000000
      71         -1.769328        1.000000        0.00000000        0.00000000        0.00000000
      72         -1.769216        1.000000        0.00000000        0.00000000        0.00000000
      73         -1.769129        1.000000        0.00000000        0.00000000        0.00000000
      74         -1.769070        1.000000        0.00000000        0.00000000        0.00000000
      75         -1.768941        1.000000        0.00000000        0.00000000        0.00000000
      76         -1.768822        1.000000        0.00000000        0.00000000        0.00000000
      77         -1.768707        1.000000        0.00000000        0.00000000        0.00000000
      78         -1.768585        1.000000        0.00000000        0.00000000        0.00000000
      79         -1.768439        1.000000        0.00000000        0.00000000        0.00000000
      80         -1.768329        1.000000        0.00000000        0.00000000        0.00000000
      81         -1.768089        1.000000        0.00000000        0.00000000        0.00000000
      82         -1.767883        1.000000        0.00000000        0.00000000        0.00000000
      83         -1.767662        1.000000        0.00000000        0.00000000        0.00000000
      84         -1.767495        1.000000        0.00000000        0.00000000        0.00000000
      85         -1.767311        1.000000        0.00000000        0.00000000        0.00000000
      86         -1.767266        1.000000        0.00000000        0.00000000        0.00000000
      87         -1.767060        1.000000        0.00000000        0.00000000        0.00000000
      88         -1.767025        1.000000        0.00000000        0.00000000        0.00000000
      89         -1.766872        1.000000        0.00000000        0.00000000        0.00000000
      90         -1.766524        1.000000        0.00000000        0.00000000        0.00000000
      91         -1.766405        1.000000        0.00000000        0.00000000        0.00000000
      92         -1.766254        1.000000        0.00000000        0.00000000        0.00000000
      93         -1.766123        1.000000        0.00000000        0.00000000        0.00000000
      94         -1.765857        1.000000        0.00000000        0.00000000        0.00000000
      95         -1.765515        1.000000        0.00000000        0.00000000        0.00000000
      96         -1.765181        1.000000        0.00000000        0.00000000        0.00000000
      97         -1.765105        1.000000        0.00000000        0.00000000        0.00000000
      98         -1.764967        1.000000        0.00000000        0.00000000        0.00000000
      99         -1.764710        1.000000        0.00000000        0.00000000        0.00000000
     100         -1.764440        1.000000        0.00000000        0.00000000        0.00000000
     101         -1.764248        1.000000        0.00000000        0.00000000        0.00000000
     102         -1.763945        1.000000        0.00000000        0.00000000        0.00000000
     103         -1.763804        1.000000        0.00000000        0.00000000        0.00000000
     104         -1.763351        1.000000        0.00000000        0.00000000        0.00000000
     105         -1.763205        1.000000        0.00000000        0.00000000        0.00000000
     106         -1.763107        1.000000        0.00000000        0.00000000        0.00000000
     107         -1.762531        1.000000        0.00000000        0.00000000        0.00000000
     108         -1.762343        1.000000        0.00000000        0.00000000        0.00000000
     109         -1.761453        1.000000        0.00000000        0.00000000        0.00000000
     110         -1.760969        1.000000        0.00000000        0.00000000        0.00000000
     111         -1.760481        1.000000        0.00000000        0.00000000        0.00000000
     112         -1.760009        1.000000        0.00000000        0.00000000        0.00000000
     113         -1.759531        1.000000        0.00000000        0.00000000        0.00000000
     114         -1.759105        1.000000        0.00000000        0.00000000        0.00000000
     115         -1.758777        1.000000        0.00000000        0.00000000        0.00000000
     116         -1.757462        1.000000        0.00000000        0.00000000        0.00000000
     117         -1.756221        1.000000        0.00000000        0.00000000        0.00000000
     118         -1.755333        1.000000        0.00000000        0.00000000        0.00000000
     119         -1.754385        1.000000        0.00000000        0.00000000        0.00000000
     120         -1.752742        1.000000        0.00000000        0.00000000        0.00000000
     121         -1.131181        1.000000        0.00053110        0.00003436        0.00001237
     122         -1.128658        1.000000        0.00040660        0.00003476        0.00000806
     123         -1.128000        1.000000        0.00051231        0.00003932        0.00001057
     124         -1.126427        1.000000        0.00001535        0.00000179        0.00000028
     125         -1.120469        1.000000        0.00015319        0.00004321        0.00000482
     126         -1.119202        1.000000        0.00104237        0.00007706        0.00002043
     127         -1.117081        1.000000        0.00021845        0.00003644        0.00000325
     128         -1.116156        1.000000        0.00332927        0.00015915        0.00005555
     129         -1.115054        1.000000        0.00750249        0.00017561        0.00014517
     130         -1.111818        1.000000        0.00017256        0.00002884        0.00000698
     131         -1.111610        1.000000        0.00027083        0.00018495        0.00001346
     132         -1.110976        1.000000        0.00233904        0.00004629        0.00003898
     133         -1.109888        1.000000        0.01469328        0.00029466        0.00023359
     134         -1.108601        1.000000        0.00012940        0.00034874        0.00001228
     135         -1.108036        1.000000        0.00943107        0.00017270        0.00015778
     136         -1.107349        1.000000        0.00354008        0.00046338        0.00005485
     137         -1.106797        1.000000        0.00000565        0.00000839        0.00000256
     138         -1.106077        1.000000        0.00011597        0.00008409        0.00000441
     139         -1.104162        1.000000        0.07077077        0.00131510        0.00097257
     140         -1.102892        1.000000        0.00338117        0.00062099        0.00007190
     141         -1.102196        1.000000        0.00274275        0.00012798        0.00003452
     142         -1.101581        1.000000        0.00311796        0.00042886        0.00005199
     143         -1.101215        1.000000        0.01234560        0.00021774        0.00015655
     144         -1.099602        1.000000        0.00067143        0.00109269        0.00002438
     145         -1.098107        1.000000        0.00156844        0.00005503        0.00001626
     146         -1.097450        1.000000        0.00358788        0.00035362        0.00003488
     147         -1.097046        1.000000        0.00679416        0.00020591        0.00006865
     148         -1.095795        1.000000        0.00000878        0.00122900        0.00001456
     149         -1.095192        1.000000        0.00851634        0.00025369        0.00008785
     150         -1.093515        1.000000        0.00392993        0.00007803        0.00004316
     151         -1.093123        1.000000        0.00013551        0.00002984        0.00000352
     152         -1.092614        1.000000        0.00304569        0.00018416        0.00003643
     153         -1.091821        1.000000        0.00025508        0.00002568        0.00002606
     154         -1.090761        1.000000        0.00041396        0.00082526        0.00003540
     155         -1.090597        1.000000        0.00009524        0.00024207        0.00001043
     156         -1.089544        1.000000        0.00094131        0.00151545        0.00008137
     157         -1.088154        1.000000        0.00083652        0.00057493        0.00004412
     158         -1.086960        1.000000        0.00131944        0.00003179        0.00001069
     159         -1.086718        1.000000        0.00128738        0.00025006        0.00004161
     160         -1.085525        1.000000        0.00923963        0.00036793        0.00005197
     161         -1.084219        1.000000        0.00052995        0.00004536        0.00000294
     162         -1.082734        1.000000        0.00643628        0.00010151        0.00005575
     163         -1.082381        1.000000        0.00702743        0.00168307        0.00011598
     164         -1.080807        1.000000        0.00039138        0.00051177        0.00002349
     165         -1.080293        1.000000        0.00909375        0.00047513        0.00005399
     166         -1.079453        1.000000        0.00124928        0.00002205        0.00001002
     167         -1.078246        1.000000        0.00029900        0.00011542        0.00001306
     168         -1.077774        1.000000        0.00080294        0.00051670        0.00002549
     169         -1.077143        1.000000        0.00218303        0.00012956        0.00001646
     170         -1.076426        1.000000        0.00043295        0.00015047        0.00000326
     171         -1.076145        1.000000        0.00001381        0.00000230        0.00000194
     172         -1.074526        1.000000        0.00070297        0.00005821        0.00000949
     173         -1.074368        1.000000        0.00841840        0.00014940        0.00004270
     174         -1.073652        1.000000        0.00049844        0.00004164        0.00000496
     175         -1.072808        1.000000        0.00655747        0.00060952        0.00007608
     176         -1.072152        1.000000        0.00349215        0.00022507        0.00001139
     177         -1.071192        1.000000        0.00550709        0.00019296        0.00005319
     178         -1.070444        1.000000        0.00030522        0.00001802        0.00000730
     179         -1.070141        1.000000        0.00009024        0.00020688        0.00000296
     180         -1.069416        1.000000        0.00590814        0.00011946        0.00003508
     181         -1.069179        1.000000        0.00358683        0.00020814        0.00003081
     182         -1.067610        1.000000        0.01366967        0.00050569        0.00006202
     183         -1.066240        1.000000        0.00205589        0.00009607        0.00002830
     184         -1.065124        1.000000        0.00005165        0.00010260        0.00001950
     185         -1.064565        1.000000        0.00868157        0.00018974        0.00001811
     186         -1.063575        1.000000        0.00118264        0.00002282        0.00000304
     187         -1.062901        1.000000        0.00285464        0.00029917        0.00003341
     188         -1.062274        1.000000        0.01507159        0.00014532        0.00005335
     189         -1.061481        1.000000        0.00107303        0.00013716        0.00000967
     190         -1.061312        1.000000        0.00006419        0.00004508        0.00001159
     191         -1.060592        1.000000        0.01642568        0.00013597        0.00005391
     192         -1.059297        1.000000        0.00108779        0.00008865        0.00003382
     193         -1.058643        1.000000        0.00343572        0.00004627        0.00000652
     194         -1.058262        1.000000        0.00007057        0.00029830        0.00002601
     195         -1.057127        1.000000        0.00292391        0.00019505        0.00000336
     196         -1.056224        1.000000        0.00966998        0.00014485        0.00000941
     197         -1.056050        1.000000        0.00829537        0.00009313        0.00002683
     198         -1.054881        1.000000        0.00070634        0.00000731        0.00000322
     199         -1.054669        1.000000        0.00273223        0.00003441        0.00000658
     200         -1.053605        1.000000        0.02054215        0.00073129        0.00006556
     201         -1.053457        1.000000        0.01263449        0.00040326        0.00003229
     202         -1.052589        1.000000        0.00010065        0.00001779        0.00000275
     203         -1.052089        1.000000        0.00105958        0.00001272        0.00000323
     204         -1.051299        1.000000        0.01871596        0.00049250        0.00003726
     205         -1.050676        1.000000        0.00180759        0.00004713        0.00000890
     206         -1.050307        1.000000        0.00421341        0.00004432        0.00001071
     207         -1.049921        1.000000        0.00108060        0.00003792        0.00000823
     208         -1.049485        1.000000        0.01859101        0.00031855        0.00001334
     209         -1.049126        1.000000        0.00016215        0.00000265        0.00000987
     210         -1.048445        1.000000        0.00395781        0.00037090        0.00001953
     211         -1.048201        1.000000        0.00303437        0.00003839        0.00000424
     212         -1.047911        1.000000        0.00114945        0.00009073        0.00000428
     213         -1.047620        1.000000        0.00061535        0.00002093        0.00001871
     214         -1.046931        1.000000        0.00000092        0.00009941        0.00000802
     215         -1.046733        1.000000        0.00057221        0.00002166        0.00000419
     216         -1.046634        1.000000        0.00000450        0.00028904        0.00001541
     217         -1.045930        1.000000        0.00001118        0.00001364        0.00000203
     218         -1.045069        1.000000        0.00023816        0.00007063        0.00000899
     219         -1.044350        1.000000        0.00002830        0.00003482        0.00000302
     220         -1.043623        1.000000        0.00001520        0.00006987        0.00000929
     221         -1.043421        1.000000        0.00004913        0.00007548        0.00001521
     222         -1.042778        1.000000        0.00001834        0.00000199        0.00000046
     223         -1.042701        1.000000        0.00056563        0.00003257        0.00000874
     224         -1.042424        1.000000        0.00029115        0.00002337        0.00001101
     225         -1.041682        1.000000        0.00468079        0.00006555        0.00000663
     226         -1.041498        1.000000        0.00008741        0.00051170        0.00002122
     227         -1.040837        1.000000        0.01372837        0.00012260        0.00005064
     228         -1.040496        1.000000        0.00342556        0.00003869        0.00001072
     229         -1.040151        1.000000        0.00006448        0.00019841        0.00003443
     230         -1.039686        1.000000        0.00221128        0.00001866        0.00000348
     231         -1.038961        1.000000        0.00462980        0.00004924        0.00000850
     232         -1.038553        1.000000        0.00013016        0.00008985        0.00000521
     233         -1.038476        1.000000        0.00322024        0.00004519        0.00001036
     234         -1.038152        1.000000        0.00032268        0.00002390        0.00000207
     235         -1.038041        1.000000        0.00020260        0.00000894        0.00000835
     236         -1.036855        1.000000        0.00590880        0.00015823        0.00007010
     237         -1.036488        1.000000        0.00016586        0.00003244        0.00000789
     238         -1.036186        1.000000        0.00021643        0.00000902        0.00000474
     239         -1.036068        1.000000        0.00019860        0.00000683        0.00000138
     240         -1.035757        1.000000        0.00216582        0.00003905        0.00001094
     241         -1.035291        1.000000        0.00000477        0.00002341        0.00000469
     242         -1.035048        1.000000        0.01638231        0.00024102        0.00008069
     243         -1.035000        1.000000        0.00579817        0.00011471        0.00002498
     244         -1.034454        1.000000        0.01015074        0.00015410        0.00003707
     245         -1.034219        1.000000        0.02062294        0.00032149        0.00009107
     246         -1.033874        1.000000        0.00366179        0.00003915        0.00001118
     247         -1.033507        1.000000        0.00010894        0.00000986        0.00000435
     248         -1.033219        1.000000        0.00019011        0.00002766        0.00000967
     249         -1.033056        1.000000        0.00182540        0.00003994        0.00000412
     250         -1.032307        1.000000        0.00023931        0.00000823        0.00000356
     251         -1.031324        1.000000        0.00332284        0.00010454        0.00001660
     252         -1.031144        1.000000        0.00006870        0.00011271        0.00009432
     253         -1.030643        1.000000        0.00085374        0.00002218        0.00002259
     254         -1.030284        1.000000        0.00000515        0.00006232        0.00006586
     255         -1.030062        1.000000        0.00017985        0.00002216        0.00002411
     256         -1.029818        1.000000        0.00069179        0.00005102        0.00003908
     257         -1.028552        1.000000        0.00041032        0.00012310        0.00009313
     258         -1.027578        1.000000        0.00063058        0.00039519        0.00025551
     259         -1.027121        1.000000        0.00002104        0.00001083        0.00000918
     260         -1.026880        1.000000        0.00049316        0.00014526        0.00011571
     261         -1.026226        1.000000        0.00137959        0.00038191        0.00023379
     262         -1.025765        1.000000        0.00033230        0.00003487        0.00001661
     263         -1.025299        1.000000        0.00000113        0.00000950        0.00000456
     264         -1.025158        1.000000        0.00068819        0.00012360        0.00002039
     265         -1.025007        1.000000        0.00032751        0.00009754        0.00006443
     266         -1.024422        1.000000        0.00401032        0.00019687        0.00005243
     267         -1.023793        1.000000        0.00008539        0.00000991        0.00000445
     268         -1.023594        1.000000        0.00012322        0.00000423        0.00000171
     269         -1.023069        1.000000        0.00233349        0.00013390        0.00007663
     270         -1.022603        1.000000        0.00103688        0.00006292        0.00004618
     271         -1.022074        1.000000        0.01357091        0.00069773        0.00045077
     272         -1.021695        1.000000        0.00206197        0.00011060        0.00006995
     273         -1.021372        1.000000        0.00000068        0.00000079        0.00000039
     274         -1.021076        1.000000        0.00245243        0.00017047        0.00007355
     275         -1.019492        1.000000        0.00001244        0.00000286        0.00001599
     276         -1.018003        1.000000        0.00040660        0.00003493        0.00001335
     277         -1.016408        1.000000        0.00000634        0.00000064        0.00000065
     278         -1.016278        1.000000        0.00000315        0.00000334        0.00000257
     279         -1.015338        1.000000        0.00013011        0.00000899        0.00000292
     280         -1.013851        1.000000        0.00001879        0.00000273        0.00000126
     281         -1.010223        1.000000        0.00021815        0.00002435        0.00001899
     282         -1.009666        1.000000        0.00000027        0.00000005        0.00000000
     283         -1.007726        1.000000        0.00002223        0.00000274        0.00000150
     284         -1.007300        1.000000        0.00001177        0.00000091        0.00000026
     285         -1.006916        1.000000        0.00000001        0.00000000        0.00000001
     286         -0.889442        1.000000        0.00000026        0.00000015        0.00000001
     287         -0.869424        1.000000        0.00000003        0.00000001        0.00000000
     288         -0.867225        1.000000        0.00000000        0.00000007        0.00000001
     289         -0.864755        1.000000        0.00000013        0.00000007        0.00000000
     290         -0.860947        1.000000        0.00000001        0.00000003        0.00000001
     291         -0.846899        1.000000        0.00000003        0.00000002        0.00000000
     292         -0.844423        1.000000        0.00000001        0.00000001        0.00000000
     293         -0.843782        1.000000        0.00000000        0.00000004        0.00000001
     294         -0.840445        1.000000        0.00000000        0.00000001        0.00000000
     295         -0.821748        1.000000        0.00000001        0.00000002        0.00000000
     296         -0.818927        1.000000        0.00000001        0.00000004        0.00000000
     297         -0.814033        1.000000        0.00000029        0.00000015        0.00000001
     298         -0.808071        1.000000        0.00000000        0.00000002        0.00000000
     299         -0.807076        1.000000        0.00000001        0.00000001        0.00000000
     300         -0.806003        1.000000        0.00000001        0.00000002        0.00000000
     301         -0.805433        1.000000        0.00000004        0.00000012        0.00000001
     302         -0.803208        1.000000        0.00000000        0.00000003        0.00000000
     303         -0.802271        1.000000        0.00000007        0.00000005        0.00000001
     304         -0.801014        1.000000        0.00000002        0.00000009        0.00000001
     305         -0.800419        1.000000        0.00000003        0.00000009        0.00000001
     306         -0.800163        1.000000        0.00000004        0.00000006        0.00000001
     307         -0.798966        1.000000        0.00000000        0.00000001        0.00000000