# Projected DOS for list 54 of 1 atoms, at iteration step i = 0, E(Fermi) =    -0.245567 a.u.
#     MO Eigenvalue [a.u.]      Occupation                 s                 p                 d
       1         -3.122063        1.000000        0.00000000        0.00000000        0.00000000
       2         -3.121278        1.000000        0.00000000        0.00000000        0.00000000
       3         -3.121021        1.000000        0.00000000        0.00000000        0.00000000
       4         -3.120578        1.000000        0.00000000        0.00000000        0.00000000
       5         -3.120271        1.000000        0.00000000        0.00000000        0.00000000
       6         -3.119857        1.000000        0.00000000        0.00000000        0.00000000
       7         -3.119652        1.000000        0.00000000        0.00000000        0.00000000
       8         -3.119624        1.000000        0.00000000        0.00000000        0.00000000
       9         -3.119219        1.000000        0.00000000        0.00000000        0.00000000
      10         -3.119023        1.000000        0.00000000        0.00000000        0.00000000
      11         -3.118913        1.000000        0.00000000        0.00000000        0.00000000
      12         -3.118874        1.000000        0.00000000        0.00000000        0.00000000
      13         -3.118317        1.000000        0.00000000        0.00000000        0.00000000
      14         -3.118249        1.000000        0.00000000        0.00000000        0.00000000
      15         -3.117895        1.000000        0.00000000        0.00000000        0.00000000
      16         -3.117383        1.000000        0.00000000        0.00000000        0.00000000
      17         -3.117165        1.000000        0.00000000        0.00000000        0.00000000
      18         -3.116815        1.000000        0.00000000        0.00000000        0.00000000
      19         -3.116436        1.000000        0.00000000        0.00000000        0.00000000
      20         -3.116021        1.000000        0.00000000        0.00000000        0.00000000
      21         -3.115852        1.000000        0.00000000        0.00000000        0.00000000
      22         -3.115668        1.000000        0.00000000        0.00000000        0.00000000
      23         -3.115368        1.000000        0.00000000        0.00000000        0.00000000
      24         -3.115339        1.000000        0.00000000        0.00000000        0.00000000
      25         -3.115041        1.000000        0.00000000        0.00000000        0.00000000
      26         -3.114366        1.000000        0.00000000        0.00000000        0.00000000
      27         -3.113951        1.000000        0.00000000        0.00000000        0.00000000
      28         -3.113764        1.000000        0.00000000        0.00000000        0.00000000
      29         -3.112534        1.000000        0.00000000        0.00000000        0.00000000
      30         -3.111679        1.000000        0.00000000        0.00000000        0.00000000
      31         -1.784233        1.000000        0.00000000        0.00000000        0.00000000
      32         -1.782870        1.000000        0.00000000        0.00000000        0.00000000
      33         -1.782324        1.000000        0.00000000        0.00000000        0.00000000
      34         -1.782130        1.000000        0.00000000        0.00000000        0.00000000
      35         -1.781736        1.000000        0.00000000        0.00000000        0.00000000
      36         -1.781230        1.000000        0.00000000        0.00000000        0.00000000
      37         -1.780847        1.000000        0.00000000        0.00000000        0.00000000
      38         -1.780487        1.000000        0.00000000        0.00000000        0.00000000
      39         -1.780184        1.000000        0.00000000        0.00000000        0.00000000
      40         -1.779550        1.000000        0.00000000        0.00000000        0.00000000
      41         -1.779259        1.000000        0.00000000        0.00000000        0.00000000
      42         -1.778921        1.000000        0.00000000        0.00000000        0.00000000
      43         -1.778390        1.000000        0.00000000        0.00000000        0.00000000
      44         -1.778140        1.000000        0.00000000        0.00000000        0.00000000
      45         -1.777912        1.000000        0.00000000        0.00000000        0.00000000
      46         -1.777514        1.000000        0.00000000        0.00000000        0.00000000
      47         -1.777362        1.000000        0.00000000        0.00000000        0.00000000
      48         -1.776787        1.000000        0.00000000        0.00000000        0.00000000
      49         -1.776537        1.000000        0.00000000        0.00000000        0.00000000
      50         -1.776457        1.000000        0.00000000        0.00000000        0.00000000
      51         -1.776029        1.000000        0.00000000        0.00000000        0.00000000
      52         -1.774038        1.000000        0.00000000        0.00000000        0.00000000
      53         -1.773797        1.000000        0.00000000        0.00000000        0.00000000
      54         -1.773665        1.000000        0.00000000        0.00000000        0.00000000
      55         -1.772725        1.000000        0.00000000        0.00000000        0.00000000
      56         -1.772546        1.000000        0.00000000        0.00000000        0.00000000
      57         -1.772041        1.000000        0.00000000        0.00000000        0.00000000
      58         -1.771662        1.000000        0.00000000        0.00000000        0.00000000
      59         -1.771364        1.000000        0.00000000        0.00000000        0.00000000
      60         -1.770813        1.000000        0.00000000        0.00000000        0.00000000
      61         -1.770640        1.000000        0.00000000        0.00000000        0.00000000
      62         -1.770449        1.000000        0.00000000        0.00000000        0.00000000
      63         -1.770188        1.000000        0.00000000        0.00000000        0.00000000
      64         -1.770126        1.000000        0.00000000        0.00000000        0.00000000
      65         -1.769991        1.000000        0.00000000        0.00000000        0.00000000
      66         -1.769845        1.000000        0.00000000        0.00000000        0.00000000
      67         -1.769763        1.000000        0.00000000        0.00000000        0.00000000
      68         -1.769661        1.000000        0.00000000        0.00000000        0.00000000
      69         -1.769465        1.000000        0.00000000        0.00000000        0.00000000
      70         -1.769351        1.000000        0.00000000        0.00000000        0.00000000
      71         -1.769328        1.000000        0.00000000        0.00000000        0.00000000
      72         -1.769216        1.000000        0.00000000        0.00000000        0.00000000
      73         -1.769129        1.000000        0.00000000        0.00000000        0.00000000
      74         -1.769070        1.000000        0.00000000        0.00000000        0.00000000
      75         -1.768941        1.000000        0.00000000        0.00000000        0.00000000
      76         -1.768822        1.000000        0.00000000        0.00000000        0.00000000
      77         -1.768707        1.000000        0.00000000        0.00000000        0.00000000
      78         -1.768585        1.000000        0.00000000        0.00000000        0.00000000
      79         -1.768439        1.000000        0.00000000        0.00000000        0.00000000
      80         -1.768329        1.000000        0.00000000        0.00000000        0.00000000
      81         -1.768089        1.000000        0.00000000        0.00000000        0.00000000
      82         -1.767883        1.000000        0.00000000        0.00000000        0.00000000
      83         -1.767662        1.000000        0.00000000        0.00000000        0.00000000
      84         -1.767495        1.000000        0.00000000        0.00000000        0.00000000
      85         -1.767311        1.000000        0.00000000        0.00000000        0.00000000
      86         -1.767266        1.000000        0.00000000        0.00000000        0.00000000
      87         -1.767060        1.000000        0.00000000        0.00000000        0.00000000
      88         -1.767025        1.000000        0.00000000        0.00000000        0.00000000
      89         -1.766872        1.000000        0.00000000        0.00000000        0.00000000
      90         -1.766524        1.000000        0.00000000        0.00000000        0.00000000
      91         -1.766405        1.000000        0.00000000        0.00000000        0.00000000
      92         -1.766254        1.000000        0.00000000        0.00000000        0.00000000
      93         -1.766123        1.000000        0.00000000        0.00000000        0.00000000
      94         -1.765857        1.000000        0.00000000        0.00000000        0.00000000
      95         -1.765515        1.000000        0.00000000        0.00000000        0.00000000
      96         -1.765181        1.000000        0.00000000        0.00000000        0.00000000
      97         -1.765105        1.000000        0.00000000        0.00000000        0.00000000
      98         -1.764967        1.000000        0.00000000        0.00000000        0.00000000
      99         -1.764710        1.000000        0.00000000        0.00000000        0.00000000
     100         -1.764440        1.000000        0.00000000        0.00000000        0.00000000
     101         -1.764248        1.000000        0.00000000        0.00000000        0.00000000
     102         -1.763945        1.000000        0.00000000        0.00000000        0.00000000
     103         -1.763804        1.000000        0.00000000        0.00000000        0.00000000
     104         -1.763351        1.000000        0.00000000        0.00000000        0.00000000
     105         -1.763205        1.000000        0.00000000        0.00000000        0.00000000
     106         -1.763107        1.000000        0.00000000        0.00000000        0.00000000
     107         -1.762531        1.000000        0.00000000        0.00000000        0.00000000
     108         -1.762343        1.000000        0.00000000        0.00000000        0.00000000
     109         -1.761453        1.000000        0.00000000        0.00000000        0.00000000
     110         -1.760969        1.000000        0.00000000        0.00000000        0.00000000
     111         -1.760481        1.000000        0.00000000        0.00000000        0.00000000
     112         -1.760009        1.000000        0.00000000        0.00000000        0.00000000
     113         -1.759531        1.000000        0.00000000        0.00000000        0.00000000
     114         -1.759105        1.000000        0.00000000        0.00000000        0.00000000
     115         -1.758777        1.000000        0.00000000        0.00000000        0.00000000
     116         -1.757462        1.000000        0.00000000        0.00000000        0.00000000
     117         -1.756221        1.000000        0.00000000        0.00000000        0.00000000
     118         -1.755333        1.000000        0.00000000        0.00000000        0.00000000
     119         -1.754385        1.000000        0.00000000        0.00000000        0.00000000
     120         -1.752742        1.000000        0.00000000        0.00000000        0.00000000
     121         -1.131181        1.000000        0.00661268        0.00160367        0.00036671
     122         -1.128658        1.000000        0.00545641        0.00161583        0.00030447
     123         -1.128000        1.000000        0.00001550        0.00008622        0.00000155
     124         -1.126427        1.000000        0.00047034        0.00017624        0.00002504
     125         -1.120469        1.000000        0.00012966        0.00002322        0.00000540
     126         -1.119202        1.000000        0.00026631        0.00003962        0.00001682
     127         -1.117081        1.000000        0.00006327        0.00002067        0.00001775
     128         -1.116156        1.000000        0.00125267        0.00013493        0.00004146
     129         -1.115054        1.000000        0.00067742        0.00011679        0.00004765
     130         -1.111818        1.000000        0.00367313        0.00020434        0.00010772
     131         -1.111610        1.000000        0.00037295        0.00019727        0.00001156
     132         -1.110976        1.000000        0.00000927        0.00028857        0.00000294
     133         -1.109888        1.000000        0.00202697        0.00005340        0.00006638
     134         -1.108601        1.000000        0.00062384        0.00005272        0.00001313
     135         -1.108036        1.000000        0.00206085        0.00041317        0.00005738
     136         -1.107349        1.000000        0.00046460        0.00017910        0.00001645
     137         -1.106797        1.000000        0.00029726        0.00003192        0.00000989
     138         -1.106077        1.000000        0.00086298        0.00020461        0.00002541
     139         -1.104162        1.000000        0.00145208        0.00002009        0.00004656
     140         -1.102892        1.000000        0.00238095        0.00019964        0.00006478
     141         -1.102196        1.000000        0.00312214        0.00018935        0.00008036
     142         -1.101581        1.000000        0.00020004        0.00005479        0.00001989
     143         -1.101215        1.000000        0.00006693        0.00081924        0.00001792
     144         -1.099602        1.000000        0.00768554        0.00050403        0.00018510
     145         -1.098107        1.000000        0.00008044        0.00001755        0.00000955
     146         -1.097450        1.000000        0.00238598        0.00002944        0.00005129
     147         -1.097046        1.000000        0.00189110        0.00001889        0.00008205
     148         -1.095795        1.000000        0.00121895        0.00003599        0.00002420
     149         -1.095192        1.000000        0.00190306        0.00007501        0.00004408
     150         -1.093515        1.000000        0.00260279        0.00003468        0.00006871
     151         -1.093123        1.000000        0.00005327        0.00003869        0.00000934
     152         -1.092614        1.000000        0.00189371        0.00005739        0.00004153
     153         -1.091821        1.000000        0.00022087        0.00024367        0.00000345
     154         -1.090761        1.000000        0.00678986        0.00016516        0.00014556
     155         -1.090597        1.000000        0.00003479        0.00000882        0.00000410
     156         -1.089544        1.000000        0.00095194        0.00000619        0.00002203
     157         -1.088154        1.000000        0.00118961        0.00004730        0.00003108
     158         -1.086960        1.000000        0.00623199        0.00100094        0.00011597
     159         -1.086718        1.000000        0.00642662        0.00026963        0.00011667
     160         -1.085525        1.000000        0.00085556        0.00005486        0.00001218
     161         -1.084219        1.000000        0.00002264        0.00003654        0.00002725
     162         -1.082734        1.000000        0.00068003        0.00092493        0.00000979
     163         -1.082381        1.000000        0.00575766        0.00011218        0.00005635
     164         -1.080807        1.000000        0.00735384        0.00033081        0.00006272
     165         -1.080293        1.000000        0.00784874        0.00076562        0.00006334
     166         -1.079453        1.000000        0.00042215        0.00015842        0.00001841
     167         -1.078246        1.000000        0.00000127        0.00008086        0.00001360
     168         -1.077774        1.000000        0.00014269        0.00001485        0.00002325
     169         -1.077143        1.000000        0.00013680        0.00002578        0.00001174
     170         -1.076426        1.000000        0.00025526        0.00013176        0.00008528
     171         -1.076145        1.000000        0.01021636        0.00050596        0.00006690
     172         -1.074526        1.000000        0.00207423        0.00020492        0.00005102
     173         -1.074368        1.000000        0.00000789        0.00021736        0.00000459
     174         -1.073652        1.000000        0.00058681        0.00031535        0.00000822
     175         -1.072808        1.000000        0.00571254        0.00011272        0.00006747
     176         -1.072152        1.000000        0.01678687        0.00036329        0.00016286
     177         -1.071192        1.000000        0.00111711        0.00010321        0.00001500
     178         -1.070444        1.000000        0.00023744        0.00030634        0.00000342
     179         -1.070141        1.000000        0.00528235        0.00018238        0.00006385
     180         -1.069416        1.000000        0.00160987        0.00064080        0.00010524
     181         -1.069179        1.000000        0.00004473        0.00021289        0.00000293
     182         -1.067610        1.000000        0.00382353        0.00051530        0.00004482
     183         -1.066240        1.000000        0.00009313        0.00002565        0.00001363
     184         -1.065124        1.000000        0.00564891        0.00006303        0.00007096
     185         -1.064565        1.000000        0.00921446        0.00014076        0.00006703
     186         -1.063575        1.000000        0.00321380        0.00003532        0.00002051
     187         -1.062901        1.000000        0.00153686        0.00002624        0.00003993
     188         -1.062274        1.000000        0.00003060        0.00052077        0.00003831
     189         -1.061481        1.000000        0.00227272        0.00004971        0.00003485
     190         -1.061312        1.000000        0.00055218        0.00007546        0.00000664
     191         -1.060592        1.000000        0.00057079        0.00025603        0.00002408
     192         -1.059297        1.000000        0.00553221        0.00005180        0.00002388
     193         -1.058643        1.000000        0.01772492        0.00037393        0.00011805
     194         -1.058262        1.000000        0.00397427        0.00007844        0.00004669
     195         -1.057127        1.000000        0.01751421        0.00024110        0.00007787
     196         -1.056224        1.000000        0.00520809        0.00015868        0.00002420
     197         -1.056050        1.000000        0.01006427        0.00036488        0.00003671
     198         -1.054881        1.000000        0.00303463        0.00009559        0.00002030
     199         -1.054669        1.000000        0.01281337        0.00047946        0.00003875
     200         -1.053605        1.000000        0.00001837        0.00021683        0.00001921
     201         -1.053457        1.000000        0.00216380        0.00008219        0.00002700
     202         -1.052589        1.000000        0.00048059        0.00000590        0.00000770
     203         -1.052089        1.000000        0.00325211        0.00009757        0.00003611
     204         -1.051299        1.000000        0.00069737        0.00017994        0.00006595
     205         -1.050676        1.000000        0.00039324        0.00020623        0.00003937
     206         -1.050307        1.000000        0.00334512        0.00012025        0.00001169
     207         -1.049921        1.000000        0.00208449        0.00003745        0.00000751
     208         -1.049485        1.000000        0.00003463        0.00004645        0.00000725
     209         -1.049126        1.000000        0.00727369        0.00025471        0.00003623
     210         -1.048445        1.000000        0.00081733        0.00024500        0.00003033
     211         -1.048201        1.000000        0.00150534        0.00001239        0.00000798
     212         -1.047911        1.000000        0.00004057        0.00013958        0.00002213
     213         -1.047620        1.000000        0.00147315        0.00010229        0.00001008
     214         -1.046931        1.000000        0.00115894        0.00002381        0.00000449
     215         -1.046733        1.000000        0.00121192        0.00042727        0.00004304
     216         -1.046634        1.000000        0.00196229        0.00006495        0.00001215
     217         -1.045930        1.000000        0.00062009        0.00050502        0.00007655
     218         -1.045069        1.000000        0.00004205        0.00013778        0.00001324
     219         -1.044350        1.000000        0.00202681        0.00030364        0.00005628
     220         -1.043623        1.000000        0.00030426        0.00000335        0.00000202
     221         -1.043421        1.000000        0.00001350        0.00000508        0.00000051
     222         -1.042778        1.000000        0.00097143        0.00002622        0.00000760
     223         -1.042701        1.000000        0.00048436        0.00004059        0.00000746
     224         -1.042424        1.000000        0.00011742        0.00003671        0.00003835
     225         -1.041682        1.000000        0.00006737        0.00006511        0.00006665
     226         -1.041498        1.000000        0.00001114        0.00002488        0.00001200
     227         -1.040837        1.000000        0.00082961        0.00000552        0.00002713
     228         -1.040496        1.000000        0.00451538        0.00003815        0.00000662
     229         -1.040151        1.000000        0.00280267        0.00007270        0.00001674
     230         -1.039686        1.000000        0.00357273        0.00006382        0.00001999
     231         -1.038961        1.000000        0.00282782        0.00010605        0.00003271
     232         -1.038553        1.000000        0.00029651        0.00002565        0.00000519
     233         -1.038476        1.000000        0.00041766        0.00001402        0.00000975
     234         -1.038152        1.000000        0.00384314        0.00023687        0.00005116
     235         -1.038041        1.000000        0.00011096        0.00009007        0.00006094
     236         -1.036855        1.000000        0.00017628        0.00003378        0.00000576
     237         -1.036488        1.000000        0.00190799        0.00016843        0.00009538
     238         -1.036186        1.000000        0.00024851        0.00007571        0.00001938
     239         -1.036068        1.000000        0.00038497        0.00000702        0.00000267
     240         -1.035757        1.000000        0.00149268        0.00003987        0.00000942
     241         -1.035291        1.000000        0.00021957        0.00001368        0.00000751
     242         -1.035048        1.000000        0.00126426        0.00002231        0.00000632
     243         -1.035000        1.000000        0.00037657        0.00002208        0.00000563
     244         -1.034454        1.000000        0.00087619        0.00002290        0.00000186
     245         -1.034219        1.000000        0.00163857        0.00003162        0.00000772
     246         -1.033874        1.000000        0.00968902        0.00009331        0.00001550
     247         -1.033507        1.000000        0.00531133        0.00014928        0.00001965
     248         -1.033219        1.000000        0.00009979        0.00000848        0.00000458
     249         -1.033056        1.000000        0.02553198        0.00022284        0.00005503
     250         -1.032307        1.000000        0.00120483        0.00000879        0.00000622
     251         -1.031324        1.000000        0.00480791        0.00001874        0.00000581
     252         -1.031144        1.000000        0.01870610        0.00006941        0.00002898
     253         -1.030643        1.000000        0.01983299        0.00008315        0.00001404
     254         -1.030284        1.000000        0.00010110        0.00000959        0.00000414
     255         -1.030062        1.000000        0.00020226        0.00002033        0.00001051
     256         -1.029818        1.000000        0.00023261        0.00000075        0.00000105
     257         -1.028552        1.000000        0.06809581        0.00034088        0.00011020
     258         -1.027578        1.000000        0.00100926        0.00003308        0.00000605
     259         -1.027121        1.000000        0.00026987        0.00001230        0.00000096
     260         -1.026880        1.000000        0.00483332        0.00013703        0.00000282
     261         -1.026226        1.000000        0.00750622        0.00003337        0.00001069
     262         -1.025765        1.000000        0.05253393        0.00022320        0.00005515
     263         -1.025299        1.000000        0.00701052        0.00002677        0.00003555
     264         -1.025158        1.000000        0.00337670        0.00004572        0.00001045
     265         -1.025007        1.000000        0.00016839        0.00002702        0.00000358
     266         -1.024422        1.000000        0.00300780        0.00002275        0.00000542
     267         -1.023793        1.000000        0.00492901        0.00006606        0.00005690
     268         -1.023594        1.000000        0.00014989        0.00000115        0.00000128
     269         -1.023069        1.000000        0.00201503        0.00000845        0.00000377
     270         -1.022603        1.000000        0.00046167        0.00000656        0.00000291
     271         -1.022074        1.000000        0.00000070        0.00000231        0.00000138
     272         -1.021695        1.000000        0.00014465        0.00001256        0.00001221
     273         -1.021372        1.000000        0.00439694        0.00042447        0.00046178
     274         -1.021076        1.000000        0.00005365        0.00000160        0.00000144
     275         -1.019492        1.000000        0.00009016        0.00000095        0.00000072
     276         -1.018003        1.000000        0.00001549        0.00000429        0.00000535
     277         -1.016408        1.000000        0.00000588        0.00000015        0.00000005
     278         -1.016278        1.000000        0.00017415        0.00000552        0.00000106
     279         -1.015338        1.000000        0.00325002        0.00009943        0.00004677
     280         -1.013851        1.000000        0.00095678        0.00002871        0.00000915
     281         -1.010223        1.000000        0.00000003        0.00000056        0.00000033
     282         -1.009666        1.000000        0.01157811        0.00107460        0.00052107
     283         -1.007726        1.000000        0.00000255        0.00000004        0.00000006
     284         -1.007300        1.000000        0.00001139        0.00000115        0.00000086
     285         -1.006916        1.000000        0.00040297        0.00007575        0.00005337
     286         -0.889442        1.000000        0.00000000        0.00000000        0.00000000
     287         -0.869424        1.000000        0.00000000        0.00000000        0.00000000
     288         -0.867225        1.000000        0.00000000        0.00000000        0.00000000
     289         -0.864755        1.000000        0.00000000        0.00000000        0.00000000
     290         -0.860947        1.000000        0.00000000        0.00000000        0.00000000
     291         -0.846899        1.000000        0.00000000        0.00000000        0.00000000
     292         -0.844423        1.000000        0.00000000        0.00000000        0.00000000
     293         -0.843782        1.000000        0.00000000        0.00000000        0.00000000
     294         -0.840445        1.000000        0.00000000        0.00000000        0.00000000
     295         -0.821748        1.000000        0.00000000        0.00000000        0.00000000
     296         -0.818927        1.000000        0.00000000        0.00000000        0.00000000
     297         -0.814033        1.000000        0.00000000        0.00000000        0.00000000
     298         -0.808071        1.000000        0.00000000        0.00000000        0.00000000
     299         -0.807076        1.000000        0.00000000        0.00000000        0.00000000
     300         -0.806003        1.000000        0.00000000        0.00000000        0.00000000
     301         -0.805433        1.000000        0.00000000        0.00000000        0.00000000
     302         -0.803208        1.000000        0.00000000        0.00000000        0.00000000
     303         -0.802271        1.000000        0.00000000        0.00000000        0.00000000
     304         -0.801014        1.000000        0.00000000        0.00000000        0.00000000
     305         -0.800419        1.000000        0.00000000        0.00000000        0.00000000
     306         -0.800163        1.000000        0.00000000        0.00000000        0.00000000
     307         -0.798966        1.000000        0.00000000        0.00000000        0.00000000