# Projected DOS for list 224 of 1 atoms, at iteration step i = 0, E(Fermi) =    -0.245567 a.u.
#     MO Eigenvalue [a.u.]      Occupation                 s                 p
       1         -3.122063        1.000000        0.00000000        0.00000000
       2         -3.121278        1.000000        0.00000000        0.00000000
       3         -3.121021        1.000000        0.00000000        0.00000000
       4         -3.120578        1.000000        0.00000000        0.00000000
       5         -3.120271        1.000000        0.00000000        0.00000000
       6         -3.119857        1.000000        0.00000000        0.00000000
       7         -3.119652        1.000000        0.00000000        0.00000000
       8         -3.119624        1.000000        0.00000000        0.00000000
       9         -3.119219        1.000000        0.00000000        0.00000000
      10         -3.119023        1.000000        0.00000000        0.00000000
      11         -3.118913        1.000000        0.00000000        0.00000000
      12         -3.118874        1.000000        0.00000000        0.00000000
      13         -3.118317        1.000000        0.00000000        0.00000000
      14         -3.118249        1.000000        0.00000000        0.00000000
      15         -3.117895        1.000000        0.00000000        0.00000000
      16         -3.117383        1.000000        0.00000000        0.00000000
      17         -3.117165        1.000000        0.00000000        0.00000000
      18         -3.116815        1.000000        0.00000000        0.00000000
      19         -3.116436        1.000000        0.00000000        0.00000000
      20         -3.116021        1.000000        0.00000000        0.00000000
      21         -3.115852        1.000000        0.00000000        0.00000000
      22         -3.115668        1.000000        0.00000000        0.00000000
      23         -3.115368        1.000000        0.00000000        0.00000000
      24         -3.115339        1.000000        0.00000000        0.00000000
      25         -3.115041        1.000000        0.00000000        0.00000000
      26         -3.114366        1.000000        0.00000000        0.00000000
      27         -3.113951        1.000000        0.00000000        0.00000000
      28         -3.113764        1.000000        0.00000000        0.00000000
      29         -3.112534        1.000000        0.00000000        0.00000000
      30         -3.111679        1.000000        0.00000000        0.00000000
      31         -1.784233        1.000000        0.00000000        0.00000000
      32         -1.782870        1.000000        0.00000000        0.00000000
      33         -1.782324        1.000000        0.00000000        0.00000000
      34         -1.782130        1.000000        0.00000000        0.00000000
      35         -1.781736        1.000000        0.00000000        0.00000000
      36         -1.781230        1.000000        0.00000000        0.00000000
      37         -1.780847        1.000000        0.00000000        0.00000000
      38         -1.780487        1.000000        0.00000000        0.00000000
      39         -1.780184        1.000000        0.00000000        0.00000000
      40         -1.779550        1.000000        0.00000000        0.00000000
      41         -1.779259        1.000000        0.00000000        0.00000000
      42         -1.778921        1.000000        0.00000000        0.00000000
      43         -1.778390        1.000000        0.00000000        0.00000000
      44         -1.778140        1.000000        0.00000000        0.00000000
      45         -1.777912        1.000000        0.00000000        0.00000000
      46         -1.777514        1.000000        0.00000000        0.00000000
      47         -1.777362        1.000000        0.00000000        0.00000000
      48         -1.776787        1.000000        0.00000000        0.00000000
      49         -1.776537        1.000000        0.00000000        0.00000000
      50         -1.776457        1.000000        0.00000000        0.00000000
      51         -1.776029        1.000000        0.00000000        0.00000000
      52         -1.774038        1.000000        0.00000000        0.00000000
      53         -1.773797        1.000000        0.00000000        0.00000000
      54         -1.773665        1.000000        0.00000000        0.00000000
      55         -1.772725        1.000000        0.00000000        0.00000000
      56         -1.772546        1.000000        0.00000000        0.00000000
      57         -1.772041        1.000000        0.00000000        0.00000000
      58         -1.771662        1.000000        0.00000000        0.00000000
      59         -1.771364        1.000000        0.00000000        0.00000000
      60         -1.770813        1.000000        0.00000000        0.00000000
      61         -1.770640        1.000000        0.00000000        0.00000000
      62         -1.770449        1.000000        0.00000000        0.00000000
      63         -1.770188        1.000000        0.00000000        0.00000000
      64         -1.770126        1.000000        0.00000000        0.00000000
      65         -1.769991        1.000000        0.00000000        0.00000000
      66         -1.769845        1.000000        0.00000000        0.00000000
      67         -1.769763        1.000000        0.00000000        0.00000000
      68         -1.769661        1.000000        0.00000000        0.00000000
      69         -1.769465        1.000000        0.00000000        0.00000000
      70         -1.769351        1.000000        0.00000000        0.00000000
      71         -1.769328        1.000000        0.00000000        0.00000000
      72         -1.769216        1.000000        0.00000000        0.00000000
      73         -1.769129        1.000000        0.00000000        0.00000000
      74         -1.769070        1.000000        0.00000000        0.00000000
      75         -1.768941        1.000000        0.00000000        0.00000000
      76         -1.768822        1.000000        0.00000000        0.00000000
      77         -1.768707        1.000000        0.00000000        0.00000000
      78         -1.768585        1.000000        0.00000000        0.00000000
      79         -1.768439        1.000000        0.00000000        0.00000000
      80         -1.768329        1.000000        0.00000000        0.00000000
      81         -1.768089        1.000000        0.00000000        0.00000000
      82         -1.767883        1.000000        0.00000000        0.00000000
      83         -1.767662        1.000000        0.00000000        0.00000000
      84         -1.767495        1.000000        0.00000000        0.00000000
      85         -1.767311        1.000000        0.00000000        0.00000000
      86         -1.767266        1.000000        0.00000000        0.00000000
      87         -1.767060        1.000000        0.00000000        0.00000000
      88         -1.767025        1.000000        0.00000000        0.00000000
      89         -1.766872        1.000000        0.00000000        0.00000000
      90         -1.766524        1.000000        0.00000000        0.00000000
      91         -1.766405        1.000000        0.00000000        0.00000000
      92         -1.766254        1.000000        0.00000000        0.00000000
      93         -1.766123        1.000000        0.00000000        0.00000000
      94         -1.765857        1.000000        0.00000000        0.00000000
      95         -1.765515        1.000000        0.00000000        0.00000000
      96         -1.765181        1.000000        0.00000000        0.00000000
      97         -1.765105        1.000000        0.00000000        0.00000000
      98         -1.764967        1.000000        0.00000000        0.00000000
      99         -1.764710        1.000000        0.00000000        0.00000000
     100         -1.764440        1.000000        0.00000000        0.00000000
     101         -1.764248        1.000000        0.00000000        0.00000000
     102         -1.763945        1.000000        0.00000000        0.00000000
     103         -1.763804        1.000000        0.00000000        0.00000000
     104         -1.763351        1.000000        0.00000000        0.00000000
     105         -1.763205        1.000000        0.00000000        0.00000000
     106         -1.763107        1.000000        0.00000000        0.00000000
     107         -1.762531        1.000000        0.00000000        0.00000000
     108         -1.762343        1.000000        0.00000000        0.00000000
     109         -1.761453        1.000000        0.00000000        0.00000000
     110         -1.760969        1.000000        0.00000000        0.00000000
     111         -1.760481        1.000000        0.00000000        0.00000000
     112         -1.760009        1.000000        0.00000000        0.00000000
     113         -1.759531        1.000000        0.00000000        0.00000000
     114         -1.759105        1.000000        0.00000000        0.00000000
     115         -1.758777        1.000000        0.00000000        0.00000000
     116         -1.757462        1.000000        0.00000000        0.00000000
     117         -1.756221        1.000000        0.00000000        0.00000000
     118         -1.755333        1.000000        0.00000000        0.00000000
     119         -1.754385        1.000000        0.00000000        0.00000000
     120         -1.752742        1.000000        0.00000000        0.00000000
     121         -1.131181        1.000000        0.00019851        0.00010602
     122         -1.128658        1.000000        0.00000122        0.00002789
     123         -1.128000        1.000000        0.00054662        0.00023412
     124         -1.126427        1.000000        0.00197023        0.00170608
     125         -1.120469        1.000000        0.00001197        0.00029417
     126         -1.119202        1.000000        0.00002921        0.00002138
     127         -1.117081        1.000000        0.00000150        0.00000406
     128         -1.116156        1.000000        0.00021145        0.00008727
     129         -1.115054        1.000000        0.00007079        0.00005571
     130         -1.111818        1.000000        0.00029971        0.00017369
     131         -1.111610        1.000000        0.00090403        0.00091880
     132         -1.110976        1.000000        0.00028287        0.00013287
     133         -1.109888        1.000000        0.00275302        0.00179149
     134         -1.108601        1.000000        0.00073176        0.00023083
     135         -1.108036        1.000000        0.00008123        0.00002386
     136         -1.107349        1.000000        0.00118072        0.00096407
     137         -1.106797        1.000000        0.00043339        0.00013329
     138         -1.106077        1.000000        0.00002317        0.00009998
     139         -1.104162        1.000000        0.00024278        0.00007848
     140         -1.102892        1.000000        0.00115805        0.00087531
     141         -1.102196        1.000000        0.00702319        0.00401090
     142         -1.101581        1.000000        0.00211548        0.00093231
     143         -1.101215        1.000000        0.00027328        0.00023917
     144         -1.099602        1.000000        0.00198467        0.00108489
     145         -1.098107        1.000000        0.00289399        0.00343015
     146         -1.097450        1.000000        0.00011108        0.00034468
     147         -1.097046        1.000000        0.00051422        0.00012723
     148         -1.095795        1.000000        0.00069287        0.00069726
     149         -1.095192        1.000000        0.00051171        0.00013194
     150         -1.093515        1.000000        0.00696080        0.00556703
     151         -1.093123        1.000000        0.00272856        0.00177399
     152         -1.092614        1.000000        0.00019725        0.00001447
     153         -1.091821        1.000000        0.00238227        0.00197136
     154         -1.090761        1.000000        0.00311003        0.00156538
     155         -1.090597        1.000000        0.00065862        0.00059090
     156         -1.089544        1.000000        0.00094345        0.00072861
     157         -1.088154        1.000000        0.00009877        0.00002829
     158         -1.086960        1.000000        0.00113141        0.00120368
     159         -1.086718        1.000000        0.00028023        0.00004404
     160         -1.085525        1.000000        0.00001200        0.00006041
     161         -1.084219        1.000000        0.00123727        0.00009463
     162         -1.082734        1.000000        0.00424066        0.00241587
     163         -1.082381        1.000000        0.00001879        0.00004800
     164         -1.080807        1.000000        0.00052229        0.00001458
     165         -1.080293        1.000000        0.00019339        0.00008493
     166         -1.079453        1.000000        0.00415146        0.00549429
     167         -1.078246        1.000000        0.00005344        0.00039501
     168         -1.077774        1.000000        0.00002168        0.00013880
     169         -1.077143        1.000000        0.01196903        0.00278764
     170         -1.076426        1.000000        0.00065684        0.00003472
     171         -1.076145        1.000000        0.00610608        0.00261124
     172         -1.074526        1.000000        0.00012790        0.00002333
     173         -1.074368        1.000000        0.00429518        0.00105428
     174         -1.073652        1.000000        0.02074870        0.00973993
     175         -1.072808        1.000000        0.00019298        0.00002840
     176         -1.072152        1.000000        0.00452653        0.00207200
     177         -1.071192        1.000000        0.00204086        0.00166260
     178         -1.070444        1.000000        0.00353979        0.00255506
     179         -1.070141        1.000000        0.00020658        0.00034574
     180         -1.069416        1.000000        0.00676808        0.00458985
     181         -1.069179        1.000000        0.00008448        0.00010371
     182         -1.067610        1.000000        0.00019628        0.00002681
     183         -1.066240        1.000000        0.00311305        0.00228595
     184         -1.065124        1.000000        0.00001177        0.00000814
     185         -1.064565        1.000000        0.00092762        0.00003603
     186         -1.063575        1.000000        0.00001650        0.00001601
     187         -1.062901        1.000000        0.00040131        0.00005662
     188         -1.062274        1.000000        0.00016788        0.00044174
     189         -1.061481        1.000000        0.00000488        0.00003211
     190         -1.061312        1.000000        0.00002639        0.00005408
     191         -1.060592        1.000000        0.00179715        0.00139702
     192         -1.059297        1.000000        0.00032765        0.00013364
     193         -1.058643        1.000000        0.00197218        0.00042521
     194         -1.058262        1.000000        0.00013505        0.00003310
     195         -1.057127        1.000000        0.00032361        0.00030446
     196         -1.056224        1.000000        0.00000308        0.00003302
     197         -1.056050        1.000000        0.00005436        0.00005935
     198         -1.054881        1.000000        0.00055431        0.00051402
     199         -1.054669        1.000000        0.00146963        0.00123502
     200         -1.053605        1.000000        0.00016694        0.00012868
     201         -1.053457        1.000000        0.00010837        0.00002889
     202         -1.052589        1.000000        0.00055873        0.00029510
     203         -1.052089        1.000000        0.00005596        0.00005202
     204         -1.051299        1.000000        0.00012901        0.00010021
     205         -1.050676        1.000000        0.00146566        0.00068775
     206         -1.050307        1.000000        0.00276221        0.00132591
     207         -1.049921        1.000000        0.00157143        0.00066894
     208         -1.049485        1.000000        0.00389175        0.00204128
     209         -1.049126        1.000000        0.00897910        0.00424893
     210         -1.048445        1.000000        0.00202406        0.00091533
     211         -1.048201        1.000000        0.00137223        0.00066297
     212         -1.047911        1.000000        0.00000534        0.00001143
     213         -1.047620        1.000000        0.00313959        0.00125005
     214         -1.046931        1.000000        0.00412344        0.00179263
     215         -1.046733        1.000000        0.00442908        0.00205634
     216         -1.046634        1.000000        0.00086492        0.00032394
     217         -1.045930        1.000000        0.00003781        0.00003270
     218         -1.045069        1.000000        0.00003013        0.00001475
     219         -1.044350        1.000000        0.00170387        0.00074122
     220         -1.043623        1.000000        0.00020879        0.00011461
     221         -1.043421        1.000000        0.00003583        0.00001532
     222         -1.042778        1.000000        0.00037715        0.00019449
     223         -1.042701        1.000000        0.00000523        0.00000747
     224         -1.042424        1.000000        0.00029775        0.00015351
     225         -1.041682        1.000000        0.00023077        0.00013161
     226         -1.041498        1.000000        0.00063529        0.00024906
     227         -1.040837        1.000000        0.00009195        0.00002691
     228         -1.040496        1.000000        0.00052528        0.00029198
     229         -1.040151        1.000000        0.00014855        0.00004018
     230         -1.039686        1.000000        0.00024875        0.00007853
     231         -1.038961        1.000000        0.00015307        0.00005465
     232         -1.038553        1.000000        0.00028305        0.00015339
     233         -1.038476        1.000000        0.00003746        0.00002822
     234         -1.038152        1.000000        0.00000280        0.00000486
     235         -1.038041        1.000000        0.00012660        0.00004218
     236         -1.036855        1.000000        0.00007044        0.00003145
     237         -1.036488        1.000000        0.00004914        0.00002066
     238         -1.036186        1.000000        0.00018662        0.00007601
     239         -1.036068        1.000000        0.00034826        0.00014567
     240         -1.035757        1.000000        0.00000328        0.00000737
     241         -1.035291        1.000000        0.00002041        0.00001092
     242         -1.035048        1.000000        0.00020723        0.00008403
     243         -1.035000        1.000000        0.00024801        0.00009428
     244         -1.034454        1.000000        0.00050291        0.00020298
     245         -1.034219        1.000000        0.00028671        0.00011028
     246         -1.033874        1.000000        0.00020355        0.00007312
     247         -1.033507        1.000000        0.00002942        0.00001083
     248         -1.033219        1.000000        0.00004152        0.00001924
     249         -1.033056        1.000000        0.00000162        0.00000240
     250         -1.032307        1.000000        0.00006636        0.00002561
     251         -1.031324        1.000000        0.00000008        0.00000005
     252         -1.031144        1.000000        0.00002412        0.00000881
     253         -1.030643        1.000000        0.00002217        0.00001510
     254         -1.030284        1.000000        0.00002825        0.00002245
     255         -1.030062        1.000000        0.00002239        0.00005387
     256         -1.029818        1.000000        0.00000255        0.00000710
     257         -1.028552        1.000000        0.00001737        0.00000748
     258         -1.027578        1.000000        0.00000889        0.00000314
     259         -1.027121        1.000000        0.00011485        0.00004017
     260         -1.026880        1.000000        0.00002365        0.00001120
     261         -1.026226        1.000000        0.00005530        0.00002006
     262         -1.025765        1.000000        0.00002285        0.00002074
     263         -1.025299        1.000000        0.00240582        0.00079325
     264         -1.025158        1.000000        0.00010606        0.00004021
     265         -1.025007        1.000000        0.00004895        0.00001704
     266         -1.024422        1.000000        0.00000287        0.00000095
     267         -1.023793        1.000000        0.00000032        0.00000518
     268         -1.023594        1.000000        0.00000195        0.00000398
     269         -1.023069        1.000000        0.00001718        0.00000789
     270         -1.022603        1.000000        0.00000504        0.00000278
     271         -1.022074        1.000000        0.00001202        0.00000955
     272         -1.021695        1.000000        0.00004186        0.00003380
     273         -1.021372        1.000000        0.00001220        0.00004185
     274         -1.021076        1.000000        0.00000002        0.00000006
     275         -1.019492        1.000000        0.00000000        0.00000002
     276         -1.018003        1.000000        0.00000000        0.00000015
     277         -1.016408        1.000000        0.00000002        0.00000000
     278         -1.016278        1.000000        0.00000001        0.00000004
     279         -1.015338        1.000000        0.00000006        0.00000017
     280         -1.013851        1.000000        0.00000002        0.00000003
     281         -1.010223        1.000000        0.00000006        0.00000002
     282         -1.009666        1.000000        0.00000000        0.00000076
     283         -1.007726        1.000000        0.00000014        0.00000005
     284         -1.007300        1.000000        0.00000170        0.00000061
     285         -1.006916        1.000000        0.00000000        0.00000011
     286         -0.889442        1.000000        0.00000000        0.00000000
     287         -0.869424        1.000000        0.00000000        0.00000000
     288         -0.867225        1.000000        0.00000000        0.00000000
     289         -0.864755        1.000000        0.00000000        0.00000000
     290         -0.860947        1.000000        0.00000000        0.00000000
     291         -0.846899        1.000000        0.00000000        0.00000000
     292         -0.844423        1.000000        0.00000000        0.00000000
     293         -0.843782        1.000000        0.00000000        0.00000000
     294         -0.840445        1.000000        0.00000000        0.00000000
     295         -0.821748        1.000000        0.00000000        0.00000000
     296         -0.818927        1.000000        0.00000000        0.00000000
     297         -0.814033        1.000000        0.00000000        0.00000000
     298         -0.808071        1.000000        0.00000000        0.00000000
     299         -0.807076        1.000000        0.00000000        0.00000000
     300         -0.806003        1.000000        0.00000000        0.00000000
     301         -0.805433        1.000000        0.00000000        0.00000000
     302         -0.803208        1.000000        0.00000000        0.00000000
     303         -0.802271        1.000000        0.00000000        0.00000000
     304         -0.801014        1.000000        0.00000000        0.00000000
     305         -0.800419        1.000000        0.00000000        0.00000000
     306         -0.800163        1.000000        0.00000000        0.00000000
     307         -0.798966        1.000000        0.00000000        0.00000000
     308         -0.796270        1.000000        0.00000000        0.00000000
     309         -0.795746        1.000000        0.00000000        0.00000000
     310         -0.794333        1.000000        0.00000000        0.00000000
     311         -0.792293        1.000000        0.00000000        0.00000000
     312         -0.791548        1.000000        0.00000000        0.00000000
     313         -0.790603        1.000000        0.00000000        0.00000000
     314         -0.790424        1.000000        0.00000000        0.00000000
     315         -0.789930        1.000000        0.00000000        0.00000000
     316         -0.788450        1.000000        0.00000000        0.00000000
     317         -0.787526        1.000000        0.00000000        0.00000000
     318         -0.786788        1.000000        0.00000000        0.00000000
     319         -0.781836        1.000000        0.00000000        0.00000000
     320         -0.780998        1.000000        0.00000000        0.00000000
     321         -0.780477        1.000000        0.00000000        0.00000000
     322         -0.779060        1.000000        0.00000000        0.00000000
     323         -0.778943        1.000000        0.00000000        0.00000000
     324         -0.777233        1.000000        0.00000000        0.00000000
     325         -0.775897        1.000000        0.00000000        0.00000000
     326         -0.774887        1.000000        0.00000000        0.00000000
     327         -0.773671        1.000000        0.00000000        0.00000000
     328         -0.773422        1.000000        0.00000000        0.00000000
     329         -0.772414        1.000000        0.00000000        0.00000000
     330         -0.771266        1.000000        0.00000000        0.00000000
     331         -0.770604        1.000000        0.00000000        0.00000000
     332         -0.769886        1.000000        0.00000000        0.00000000
     333         -0.769439        1.000000        0.00000000        0.00000000
     334         -0.769009        1.000000        0.00000000        0.00000000
     335         -0.767483        1.000000        0.00000000        0.00000000
     336         -0.766717        1.000000        0.00000000        0.00000000
     337         -0.765490        1.000000        0.00000000        0.00000000
     338         -0.763700        1.000000        0.00000000        0.00000000
     339         -0.762625        1.000000        0.00000000        0.00000000
     340         -0.761653        1.000000        0.00000000        0.00000000
     341         -0.761196        1.000000        0.00000000        0.00000000
     342         -0.759265        1.000000        0.00000000        0.00000000
     343         -0.758410        1.000000        0.00000000        0.00000000
     344         -0.755260        1.000000        0.00000000        0.00000000
     345         -0.754586        1.000000        0.00000000        0.00000000
     346         -0.703685        1.000000        0.00014510        0.00006287
     347         -0.693847        1.000000        0.00009303        0.00003751
     348         -0.690060        1.000000        0.00000304        0.00004770
     349         -0.688902        1.000000        0.00009343        0.00004396
     350         -0.684111        1.000000        0.00021523        0.00002354
     351         -0.681092        1.000000        0.00004054        0.00005457
     352         -0.678905        1.000000        0.00000755        0.00000027
     353         -0.676982        1.000000        0.00005118        0.00000640
     354         -0.673929        1.000000        0.00002657        0.00002433
     355         -0.673106        1.000000        0.00008507        0.00004263
     356         -0.670728        1.000000        0.00039639        0.00003746
     357         -0.670092        1.000000        0.00003008        0.00000412
     358         -0.669168        1.000000        0.00105100        0.00027907
     359         -0.667801        1.000000        0.00010167        0.00002542
     360         -0.665884        1.000000        0.00033586        0.00003554
     361         -0.664702        1.000000        0.00004664        0.00000337
     362         -0.662263        1.000000        0.00005271        0.00004226
     363         -0.660875        1.000000        0.00001066        0.00001734
     364         -0.658191        1.000000        0.00013911        0.00004483
     365         -0.657373        1.000000        0.00070207        0.00023324
     366         -0.655967        1.000000        0.00003024        0.00001356
     367         -0.655536        1.000000        0.00047109        0.00010862
     368         -0.653752        1.000000        0.00105532        0.00007408
     369         -0.651127        1.000000        0.00140721        0.00025476
     370         -0.648938        1.000000        0.00185096        0.00023541
     371         -0.647875        1.000000        0.00007864        0.00008234
     372         -0.644925        1.000000        0.00019198        0.00004434
     373         -0.644581        1.000000        0.00003992        0.00002194
     374         -0.641910        1.000000        0.00133991        0.00018493
     375         -0.641212        1.000000        0.00025142        0.00004944
     376         -0.639876        1.000000        0.00019927        0.00005527
     377         -0.637901        1.000000        0.00001423        0.00004186