# Projected DOS for list 89 of 1 atoms, at iteration step i = 0, E(Fermi) =    -0.245567 a.u.
#     MO Eigenvalue [a.u.]      Occupation                 s                 p                 d
       1         -3.122063        1.000000        0.00000000        0.00000000        0.00000000
       2         -3.121278        1.000000        0.00000000        0.00000000        0.00000000
       3         -3.121021        1.000000        0.00000000        0.00000000        0.00000000
       4         -3.120578        1.000000        0.00000000        0.00000000        0.00000000
       5         -3.120271        1.000000        0.00000000        0.00000000        0.00000000
       6         -3.119857        1.000000        0.00000000        0.00000000        0.00000000
       7         -3.119652        1.000000        0.00000000        0.00000000        0.00000000
       8         -3.119624        1.000000        0.00000000        0.00000000        0.00000000
       9         -3.119219        1.000000        0.00000000        0.00000000        0.00000000
      10         -3.119023        1.000000        0.00000000        0.00000000        0.00000000
      11         -3.118913        1.000000        0.00000000        0.00000000        0.00000000
      12         -3.118874        1.000000        0.00000000        0.00000000        0.00000000
      13         -3.118317        1.000000        0.00000000        0.00000000        0.00000000
      14         -3.118249        1.000000        0.00000000        0.00000000        0.00000000
      15         -3.117895        1.000000        0.00000000        0.00000000        0.00000000
      16         -3.117383        1.000000        0.00000000        0.00000000        0.00000000
      17         -3.117165        1.000000        0.00000000        0.00000000        0.00000000
      18         -3.116815        1.000000        0.00000000        0.00000000        0.00000000
      19         -3.116436        1.000000        0.00000000        0.00000000        0.00000000
      20         -3.116021        1.000000        0.00000000        0.00000000        0.00000000
      21         -3.115852        1.000000        0.00000000        0.00000000        0.00000000
      22         -3.115668        1.000000        0.00000000        0.00000000        0.00000000
      23         -3.115368        1.000000        0.00000000        0.00000000        0.00000000
      24         -3.115339        1.000000        0.00000000        0.00000000        0.00000000
      25         -3.115041        1.000000        0.00000000        0.00000000        0.00000000
      26         -3.114366        1.000000        0.00000000        0.00000000        0.00000000
      27         -3.113951        1.000000        0.00000000        0.00000000        0.00000000
      28         -3.113764        1.000000        0.00000000        0.00000000        0.00000000
      29         -3.112534        1.000000        0.00000000        0.00000000        0.00000000
      30         -3.111679        1.000000        0.00000000        0.00000000        0.00000000
      31         -1.784233        1.000000        0.00000000        0.00000000        0.00000000
      32         -1.782870        1.000000        0.00000000        0.00000000        0.00000000
      33         -1.782324        1.000000        0.00000000        0.00000000        0.00000000
      34         -1.782130        1.000000        0.00000000        0.00000000        0.00000000
      35         -1.781736        1.000000        0.00000000        0.00000000        0.00000000
      36         -1.781230        1.000000        0.00000000        0.00000000        0.00000000
      37         -1.780847        1.000000        0.00000000        0.00000000        0.00000000
      38         -1.780487        1.000000        0.00000000        0.00000000        0.00000000
      39         -1.780184        1.000000        0.00000000        0.00000000        0.00000000
      40         -1.779550        1.000000        0.00000000        0.00000000        0.00000000
      41         -1.779259        1.000000        0.00000000        0.00000000        0.00000000
      42         -1.778921        1.000000        0.00000000        0.00000000        0.00000000
      43         -1.778390        1.000000        0.00000000        0.00000000        0.00000000
      44         -1.778140        1.000000        0.00000000        0.00000000        0.00000000
      45         -1.777912        1.000000        0.00000000        0.00000000        0.00000000
      46         -1.777514        1.000000        0.00000000        0.00000000        0.00000000
      47         -1.777362        1.000000        0.00000000        0.00000000        0.00000000
      48         -1.776787        1.000000        0.00000000        0.00000000        0.00000000
      49         -1.776537        1.000000        0.00000000        0.00000000        0.00000000
      50         -1.776457        1.000000        0.00000000        0.00000000        0.00000000
      51         -1.776029        1.000000        0.00000000        0.00000000        0.00000000
      52         -1.774038        1.000000        0.00000000        0.00000000        0.00000000
      53         -1.773797        1.000000        0.00000000        0.00000000        0.00000000
      54         -1.773665        1.000000        0.00000000        0.00000000        0.00000000
      55         -1.772725        1.000000        0.00000000        0.00000000        0.00000000
      56         -1.772546        1.000000        0.00000000        0.00000000        0.00000000
      57         -1.772041        1.000000        0.00000000        0.00000000        0.00000000
      58         -1.771662        1.000000        0.00000000        0.00000000        0.00000000
      59         -1.771364        1.000000        0.00000000        0.00000000        0.00000000
      60         -1.770813        1.000000        0.00000000        0.00000000        0.00000000
      61         -1.770640        1.000000        0.00000000        0.00000000        0.00000000
      62         -1.770449        1.000000        0.00000000        0.00000000        0.00000000
      63         -1.770188        1.000000        0.00000000        0.00000000        0.00000000
      64         -1.770126        1.000000        0.00000000        0.00000000        0.00000000
      65         -1.769991        1.000000        0.00000000        0.00000000        0.00000000
      66         -1.769845        1.000000        0.00000000        0.00000000        0.00000000
      67         -1.769763        1.000000        0.00000000        0.00000000        0.00000000
      68         -1.769661        1.000000        0.00000000        0.00000000        0.00000000
      69         -1.769465        1.000000        0.00000000        0.00000000        0.00000000
      70         -1.769351        1.000000        0.00000000        0.00000000        0.00000000
      71         -1.769328        1.000000        0.00000000        0.00000000        0.00000000
      72         -1.769216        1.000000        0.00000000        0.00000000        0.00000000
      73         -1.769129        1.000000        0.00000000        0.00000000        0.00000000
      74         -1.769070        1.000000        0.00000000        0.00000000        0.00000000
      75         -1.768941        1.000000        0.00000000        0.00000000        0.00000000
      76         -1.768822        1.000000        0.00000000        0.00000000        0.00000000
      77         -1.768707        1.000000        0.00000000        0.00000000        0.00000000
      78         -1.768585        1.000000        0.00000000        0.00000000        0.00000000
      79         -1.768439        1.000000        0.00000000        0.00000000        0.00000000
      80         -1.768329        1.000000        0.00000000        0.00000000        0.00000000
      81         -1.768089        1.000000        0.00000000        0.00000000        0.00000000
      82         -1.767883        1.000000        0.00000000        0.00000000        0.00000000
      83         -1.767662        1.000000        0.00000000        0.00000000        0.00000000
      84         -1.767495        1.000000        0.00000000        0.00000000        0.00000000
      85         -1.767311        1.000000        0.00000000        0.00000000        0.00000000
      86         -1.767266        1.000000        0.00000000        0.00000000        0.00000000
      87         -1.767060        1.000000        0.00000000        0.00000000        0.00000000
      88         -1.767025        1.000000        0.00000000        0.00000000        0.00000000
      89         -1.766872        1.000000        0.00000000        0.00000000        0.00000000
      90         -1.766524        1.000000        0.00000000        0.00000000        0.00000000
      91         -1.766405        1.000000        0.00000000        0.00000000        0.00000000
      92         -1.766254        1.000000        0.00000000        0.00000000        0.00000000
      93         -1.766123        1.000000        0.00000000        0.00000000        0.00000000
      94         -1.765857        1.000000        0.00000000        0.00000000        0.00000000
      95         -1.765515        1.000000        0.00000000        0.00000000        0.00000000
      96         -1.765181        1.000000        0.00000000        0.00000000        0.00000000
      97         -1.765105        1.000000        0.00000000        0.00000000        0.00000000
      98         -1.764967        1.000000        0.00000000        0.00000000        0.00000000
      99         -1.764710        1.000000        0.00000000        0.00000000        0.00000000
     100         -1.764440        1.000000        0.00000000        0.00000000        0.00000000
     101         -1.764248        1.000000        0.00000000        0.00000000        0.00000000
     102         -1.763945        1.000000        0.00000000        0.00000000        0.00000000
     103         -1.763804        1.000000        0.00000000        0.00000000        0.00000000
     104         -1.763351        1.000000        0.00000000        0.00000000        0.00000000
     105         -1.763205        1.000000        0.00000000        0.00000000        0.00000000
     106         -1.763107        1.000000        0.00000000        0.00000000        0.00000000
     107         -1.762531        1.000000        0.00000000        0.00000000        0.00000000
     108         -1.762343        1.000000        0.00000000        0.00000000        0.00000000
     109         -1.761453        1.000000        0.00000000        0.00000000        0.00000000
     110         -1.760969        1.000000        0.00000000        0.00000000        0.00000000
     111         -1.760481        1.000000        0.00000000        0.00000000        0.00000000
     112         -1.760009        1.000000        0.00000000        0.00000000        0.00000000
     113         -1.759531        1.000000        0.00000000        0.00000000        0.00000000
     114         -1.759105        1.000000        0.00000000        0.00000000        0.00000000
     115         -1.758777        1.000000        0.00000000        0.00000000        0.00000000
     116         -1.757462        1.000000        0.00000000        0.00000000        0.00000000
     117         -1.756221        1.000000        0.00000000        0.00000000        0.00000000
     118         -1.755333        1.000000        0.00000000        0.00000000        0.00000000
     119         -1.754385        1.000000        0.00000000        0.00000000        0.00000000
     120         -1.752742        1.000000        0.00000000        0.00000000        0.00000000
     121         -1.131181        1.000000        0.00208760        0.00029102        0.00011189
     122         -1.128658        1.000000        0.00083777        0.00044329        0.00005707
     123         -1.128000        1.000000        0.00000244        0.00000307        0.00000071
     124         -1.126427        1.000000        0.00029232        0.00001543        0.00001966
     125         -1.120469        1.000000        0.00075741        0.00006053        0.00002181
     126         -1.119202        1.000000        0.00091332        0.00002197        0.00003320
     127         -1.117081        1.000000        0.00123076        0.00024351        0.00002856
     128         -1.116156        1.000000        0.00114486        0.00040006        0.00004993
     129         -1.115054        1.000000        0.00178558        0.00004158        0.00006595
     130         -1.111818        1.000000        0.00018703        0.00007163        0.00001280
     131         -1.111610        1.000000        0.00318056        0.00058942        0.00010257
     132         -1.110976        1.000000        0.00119274        0.00034036        0.00004936
     133         -1.109888        1.000000        0.00251047        0.00006104        0.00006889
     134         -1.108601        1.000000        0.00027398        0.00009086        0.00002742
     135         -1.108036        1.000000        0.00234334        0.00002720        0.00007816
     136         -1.107349        1.000000        0.00002742        0.00010232        0.00001829
     137         -1.106797        1.000000        0.00031498        0.00050765        0.00002069
     138         -1.106077        1.000000        0.00086614        0.00004902        0.00001869
     139         -1.104162        1.000000        0.00087470        0.00001261        0.00002748
     140         -1.102892        1.000000        0.00007033        0.00035691        0.00000166
     141         -1.102196        1.000000        0.00087646        0.00004842        0.00003105
     142         -1.101581        1.000000        0.00712966        0.00126563        0.00022266
     143         -1.101215        1.000000        0.00106048        0.00001772        0.00004007
     144         -1.099602        1.000000        0.01077976        0.00070360        0.00024155
     145         -1.098107        1.000000        0.01678530        0.00015989        0.00039555
     146         -1.097450        1.000000        0.00057302        0.00008019        0.00000947
     147         -1.097046        1.000000        0.01381511        0.00017275        0.00033167
     148         -1.095795        1.000000        0.00061239        0.00002133        0.00001007
     149         -1.095192        1.000000        0.00084412        0.00029674        0.00001812
     150         -1.093515        1.000000        0.00053194        0.00017503        0.00000763
     151         -1.093123        1.000000        0.01890200        0.00034984        0.00039901
     152         -1.092614        1.000000        0.00602689        0.00044117        0.00010897
     153         -1.091821        1.000000        0.00141818        0.00008151        0.00002161
     154         -1.090761        1.000000        0.01444110        0.00011594        0.00026561
     155         -1.090597        1.000000        0.00163656        0.00010047        0.00004149
     156         -1.089544        1.000000        0.00014013        0.00000226        0.00000147
     157         -1.088154        1.000000        0.00058971        0.00043099        0.00000820
     158         -1.086960        1.000000        0.00001424        0.00012688        0.00000136
     159         -1.086718        1.000000        0.00459485        0.00013311        0.00007292
     160         -1.085525        1.000000        0.00032336        0.00000793        0.00001137
     161         -1.084219        1.000000        0.00070987        0.00099700        0.00003901
     162         -1.082734        1.000000        0.00083023        0.00016145        0.00001557
     163         -1.082381        1.000000        0.00384593        0.00048197        0.00003636
     164         -1.080807        1.000000        0.00000036        0.00027109        0.00000774
     165         -1.080293        1.000000        0.00177252        0.00021508        0.00001687
     166         -1.079453        1.000000        0.00043454        0.00009510        0.00000477
     167         -1.078246        1.000000        0.00044150        0.00034370        0.00001807
     168         -1.077774        1.000000        0.02072019        0.00046203        0.00027339
     169         -1.077143        1.000000        0.00019552        0.00368945        0.00001720
     170         -1.076426        1.000000        0.00145916        0.00001137        0.00001522
     171         -1.076145        1.000000        0.00041108        0.00007922        0.00000240
     172         -1.074526        1.000000        0.00055416        0.00013689        0.00000688
     173         -1.074368        1.000000        0.00640406        0.00014490        0.00011800
     174         -1.073652        1.000000        0.00037071        0.00002421        0.00002731
     175         -1.072808        1.000000        0.00091871        0.00048403        0.00001572
     176         -1.072152        1.000000        0.01051458        0.00016424        0.00009204
     177         -1.071192        1.000000        0.00051845        0.00014316        0.00001130
     178         -1.070444        1.000000        0.00324695        0.00003617        0.00002307
     179         -1.070141        1.000000        0.00003807        0.00203155        0.00002456
     180         -1.069416        1.000000        0.00117825        0.00024569        0.00000696
     181         -1.069179        1.000000        0.00246845        0.00060268        0.00003712
     182         -1.067610        1.000000        0.00023695        0.00047823        0.00002678
     183         -1.066240        1.000000        0.00001474        0.00003172        0.00001044
     184         -1.065124        1.000000        0.00095121        0.00038918        0.00002047
     185         -1.064565        1.000000        0.00038464        0.00177206        0.00001761
     186         -1.063575        1.000000        0.00468626        0.00135407        0.00003946
     187         -1.062901        1.000000        0.00000863        0.00007669        0.00000171
     188         -1.062274        1.000000        0.00238390        0.00062780        0.00004752
     189         -1.061481        1.000000        0.00017963        0.00018079        0.00000833
     190         -1.061312        1.000000        0.00153235        0.00092493        0.00001601
     191         -1.060592        1.000000        0.00000113        0.00018017        0.00000343
     192         -1.059297        1.000000        0.00024475        0.00005595        0.00000140
     193         -1.058643        1.000000        0.00000516        0.00010339        0.00003854
     194         -1.058262        1.000000        0.00169741        0.00003142        0.00001807
     195         -1.057127        1.000000        0.00071292        0.00011276        0.00001428
     196         -1.056224        1.000000        0.00004689        0.00001931        0.00000673
     197         -1.056050        1.000000        0.00170049        0.00001737        0.00001840
     198         -1.054881        1.000000        0.00032826        0.00005737        0.00002288
     199         -1.054669        1.000000        0.00170668        0.00014618        0.00007625
     200         -1.053605        1.000000        0.00045213        0.00006822        0.00002737
     201         -1.053457        1.000000        0.00177203        0.00004976        0.00001461
     202         -1.052589        1.000000        0.00012823        0.00001839        0.00000853
     203         -1.052089        1.000000        0.00102988        0.00004322        0.00002238
     204         -1.051299        1.000000        0.00028243        0.00005711        0.00000372
     205         -1.050676        1.000000        0.00020326        0.00000793        0.00000337
     206         -1.050307        1.000000        0.00139718        0.00003260        0.00001554
     207         -1.049921        1.000000        0.00225434        0.00006143        0.00003032
     208         -1.049485        1.000000        0.00130990        0.00002098        0.00002206
     209         -1.049126        1.000000        0.00000400        0.00000887        0.00000808
     210         -1.048445        1.000000        0.00008706        0.00001327        0.00003898
     211         -1.048201        1.000000        0.00007648        0.00020585        0.00001312
     212         -1.047911        1.000000        0.00058891        0.00003948        0.00002150
     213         -1.047620        1.000000        0.00052874        0.00004684        0.00003611
     214         -1.046931        1.000000        0.00107989        0.00004070        0.00002374
     215         -1.046733        1.000000        0.00013209        0.00001255        0.00000226
     216         -1.046634        1.000000        0.00052521        0.00007541        0.00005279
     217         -1.045930        1.000000        0.00013950        0.00007852        0.00004590
     218         -1.045069        1.000000        0.00132864        0.00003710        0.00003112
     219         -1.044350        1.000000        0.00091712        0.00039687        0.00031895
     220         -1.043623        1.000000        0.00108919        0.00004947        0.00001811
     221         -1.043421        1.000000        0.00025408        0.00001392        0.00000526
     222         -1.042778        1.000000        0.00065580        0.00009685        0.00006270
     223         -1.042701        1.000000        0.00244694        0.00002432        0.00000299
     224         -1.042424        1.000000        0.00179179        0.00004374        0.00001312
     225         -1.041682        1.000000        0.00248935        0.00004985        0.00001110
     226         -1.041498        1.000000        0.00290979        0.00005674        0.00000416
     227         -1.040837        1.000000        0.00015497        0.00001922        0.00000840
     228         -1.040496        1.000000        0.00303952        0.00012157        0.00003609
     229         -1.040151        1.000000        0.00034416        0.00002525        0.00001169
     230         -1.039686        1.000000        0.00004998        0.00006369        0.00003814
     231         -1.038961        1.000000        0.00067330        0.00001527        0.00000092
     232         -1.038553        1.000000        0.00295197        0.00001399        0.00000709
     233         -1.038476        1.000000        0.01673794        0.00021296        0.00000698
     234         -1.038152        1.000000        0.01629767        0.00049265        0.00012088
     235         -1.038041        1.000000        0.00863240        0.00028802        0.00004568
     236         -1.036855        1.000000        0.00987351        0.00014645        0.00000895
     237         -1.036488        1.000000        0.00219985        0.00006141        0.00006322
     238         -1.036186        1.000000        0.00229045        0.00002417        0.00002177
     239         -1.036068        1.000000        0.00248526        0.00003361        0.00001624
     240         -1.035757        1.000000        0.00187505        0.00002711        0.00000924
     241         -1.035291        1.000000        0.00081118        0.00010979        0.00000706
     242         -1.035048        1.000000        0.00191043        0.00011677        0.00008802
     243         -1.035000        1.000000        0.00007134        0.00006478        0.00002732
     244         -1.034454        1.000000        0.00034424        0.00011239        0.00006912
     245         -1.034219        1.000000        0.00058436        0.00006932        0.00005080
     246         -1.033874        1.000000        0.00043562        0.00008294        0.00001956
     247         -1.033507        1.000000        0.00073392        0.00003335        0.00000355
     248         -1.033219        1.000000        0.00490888        0.00011218        0.00021865
     249         -1.033056        1.000000        0.00000848        0.00002092        0.00006455
     250         -1.032307        1.000000        0.00027874        0.00010287        0.00052991
     251         -1.031324        1.000000        0.00006106        0.00003953        0.00006090
     252         -1.031144        1.000000        0.00021391        0.00000592        0.00000913
     253         -1.030643        1.000000        0.00005274        0.00003022        0.00002905
     254         -1.030284        1.000000        0.00173150        0.00009952        0.00004937
     255         -1.030062        1.000000        0.00058620        0.00013727        0.00009789
     256         -1.029818        1.000000        0.00591329        0.00004060        0.00003085
     257         -1.028552        1.000000        0.00097523        0.00000468        0.00000433
     258         -1.027578        1.000000        0.00000034        0.00000276        0.00000032
     259         -1.027121        1.000000        0.22420624        0.00088378        0.00016520
     260         -1.026880        1.000000        0.00963772        0.00003864        0.00000726
     261         -1.026226        1.000000        0.00333024        0.00001589        0.00000240
     262         -1.025765        1.000000        0.00001337        0.00000710        0.00001088
     263         -1.025299        1.000000        0.00110225        0.00000856        0.00000180
     264         -1.025158        1.000000        0.00006955        0.00012284        0.00016219
     265         -1.025007        1.000000        0.00561514        0.00015251        0.00012492
     266         -1.024422        1.000000        0.00047723        0.00000535        0.00000379
     267         -1.023793        1.000000        0.00047119        0.00000913        0.00001108
     268         -1.023594        1.000000        0.00000560        0.00009658        0.00010216
     269         -1.023069        1.000000        0.00009445        0.00006148        0.00006231
     270         -1.022603        1.000000        0.00041780        0.00001758        0.00001594
     271         -1.022074        1.000000        0.00050911        0.00000811        0.00000284
     272         -1.021695        1.000000        0.00035104        0.00008911        0.00010342
     273         -1.021372        1.000000        0.00061514        0.00000549        0.00000058
     274         -1.021076        1.000000        0.00003012        0.00000430        0.00001568
     275         -1.019492        1.000000        0.00000033        0.00000096        0.00000176
     276         -1.018003        1.000000        0.00015331        0.00000982        0.00000257
     277         -1.016408        1.000000        0.00021172        0.00000792        0.00000229
     278         -1.016278        1.000000        0.00000236        0.00000225        0.00000248
     279         -1.015338        1.000000        0.00000074        0.00000010        0.00000012
     280         -1.013851        1.000000        0.00004883        0.00000018        0.00000035
     281         -1.010223        1.000000        0.00000389        0.00000015        0.00000006
     282         -1.009666        1.000000        0.00000209        0.00000005        0.00000001
     283         -1.007726        1.000000        0.00000923        0.00000026        0.00000009
     284         -1.007300        1.000000        0.00008677        0.00000336        0.00000182
     285         -1.006916        1.000000        0.00000059        0.00000004        0.00000004
     286         -0.889442        1.000000        0.00000000        0.00000000        0.00000000
     287         -0.869424        1.000000        0.00000000        0.00000000        0.00000000
     288         -0.867225        1.000000        0.00000000        0.00000000        0.00000000
     289         -0.864755        1.000000        0.00000000        0.00000000        0.00000000
     290         -0.860947        1.000000        0.00000000        0.00000000        0.00000000
     291         -0.846899        1.000000        0.00000000        0.00000000        0.00000000
     292         -0.844423        1.000000        0.00000000        0.00000000        0.00000000
     293         -0.843782        1.000000        0.00000000        0.00000000        0.00000000
     294         -0.840445        1.000000        0.00000000        0.00000000        0.00000000
     295         -0.821748        1.000000        0.00000000        0.00000000        0.00000000
     296         -0.818927        1.000000        0.00000000        0.00000000        0.00000000
     297         -0.814033        1.000000        0.00000000        0.00000000        0.00000000
     298         -0.808071        1.000000        0.00000000        0.00000000        0.00000000
     299         -0.807076        1.000000        0.00000000        0.00000000        0.00000000
     300         -0.806003        1.000000        0.00000000        0.00000000        0.00000000
     301         -0.805433        1.000000        0.00000000        0.00000000        0.00000000
     302         -0.803208        1.000000        0.00000000        0.00000000        0.00000000
     303         -0.802271        1.000000        0.00000000        0.00000000        0.00000000
     304         -0.801014        1.000000        0.00000000        0.00000000        0.00000000
     305         -0.800419        1.000000        0.00000000        0.00000000        0.00000000
     306         -0.800163        1.000000        0.00000000        0.00000000        0.00000000
     307         -0.798966        1.000000        0.00000000        0.00000000        0.00000000