# Projected DOS for atomic kind W at iteration step i = 0, E(Fermi) =    -0.245567 a.u.
#     MO Eigenvalue [a.u.]      Occupation                 s                 p                 d                 f
       1         -3.122063        1.000000        0.85952108        0.00745384        0.05928565        0.00170724
       2         -3.121278        1.000000        0.85718110        0.00848223        0.05474773        0.00153110
       3         -3.121021        1.000000        0.87080348        0.00967599        0.05332134        0.00193972
       4         -3.120578        1.000000        0.85271720        0.00949701        0.05588616        0.00177497
       5         -3.120271        1.000000        0.85662032        0.00869458        0.06638841        0.00158229
       6         -3.119857        1.000000        0.86632596        0.00723721        0.06169369        0.00198794
       7         -3.119652        1.000000        0.86662945        0.00823110        0.05727226        0.00194998
       8         -3.119624        1.000000        0.87495208        0.00846236        0.05654149        0.00188303
       9         -3.119219        1.000000        0.86941401        0.00840452        0.05646714        0.00196090
      10         -3.119023        1.000000        0.87706738        0.00723991        0.05661603        0.00202483
      11         -3.118913        1.000000        0.88867938        0.00389238        0.05584346        0.00214937
      12         -3.118874        1.000000        0.88884576        0.00375153        0.05938940        0.00244343
      13         -3.118317        1.000000        0.86536376        0.00642456        0.05864275        0.00203654
      14         -3.118249        1.000000        0.87069537        0.00702913        0.05764461        0.00195714
      15         -3.117895        1.000000        0.85931300        0.00753730        0.06701163        0.00175719
      16         -3.117383        1.000000        0.86990487        0.00641975        0.05530629        0.00212009
      17         -3.117165        1.000000        0.88502022        0.00637221        0.05088977        0.00235300
      18         -3.116815        1.000000        0.85853681        0.00830044        0.05794669        0.00168071
      19         -3.116436        1.000000        0.86892753        0.00803580        0.05755839        0.00203798
      20         -3.116021        1.000000        0.86138415        0.00722739        0.05698751        0.00202956
      21         -3.115852        1.000000        0.86795391        0.00518527        0.06955131        0.00188972
      22         -3.115668        1.000000        0.86485484        0.00764564        0.05623708        0.00195609
      23         -3.115368        1.000000        0.88373589        0.00525261        0.05482188        0.00231166
      24         -3.115339        1.000000        0.88207441        0.00611139        0.05487210        0.00217086
      25         -3.115041        1.000000        0.86478828        0.00733834        0.06336266        0.00196508
      26         -3.114366        1.000000        0.87027341        0.00697531        0.06146792        0.00195331
      27         -3.113951        1.000000        0.87632252        0.00542537        0.06150583        0.00202478
      28         -3.113764        1.000000        0.88056568        0.00461354        0.05879741        0.00231216
      29         -3.112534        1.000000        0.87251505        0.00531524        0.05632235        0.00215771
      30         -3.111679        1.000000        0.87452417        0.00580026        0.05845830        0.00211184
      31         -1.784233        1.000000        0.00143319        0.95847568        0.00227161        0.00111915
      32         -1.782870        1.000000        0.00179469        0.94909446        0.01283327        0.00104621
      33         -1.782324        1.000000        0.00286264        0.95305661        0.00987947        0.00108026
      34         -1.782130        1.000000        0.00202867        0.95249923        0.01045209        0.00108061
      35         -1.781736        1.000000        0.00179472        0.95394692        0.01081189        0.00113347
      36         -1.781230        1.000000        0.00155820        0.94886743        0.01810927        0.00053932
      37         -1.780847        1.000000        0.00149332        0.95031508        0.01601877        0.00069025
      38         -1.780487        1.000000        0.00415606        0.95275882        0.01000850        0.00105621
      39         -1.780184        1.000000        0.00513465        0.95634597        0.00652606        0.00120206
      40         -1.779550        1.000000        0.00466977        0.95387270        0.00800945        0.00107821
      41         -1.779259        1.000000        0.00428942        0.95500724        0.00677405        0.00115150
      42         -1.778921        1.000000        0.00676528        0.95443404        0.00934662        0.00066233
      43         -1.778390        1.000000        0.00537689        0.95159948        0.01227932        0.00059864
      44         -1.778140        1.000000        0.00370802        0.94811978        0.01690322        0.00071513
      45         -1.777912        1.000000        0.00249588        0.94823172        0.02032146        0.00058768
      46         -1.777514        1.000000        0.00690228        0.95158996        0.01303835        0.00030716
      47         -1.777362        1.000000        0.00706361        0.95322262        0.01236212        0.00033835
      48         -1.776787        1.000000        0.00809334        0.95324481        0.00975276        0.00055532
      49         -1.776537        1.000000        0.00687319        0.95366175        0.01099871        0.00054696
      50         -1.776457        1.000000        0.00710859        0.95216336        0.01149685        0.00048392
      51         -1.776029        1.000000        0.00681461        0.95209079        0.01238023        0.00043903
      52         -1.774038        1.000000        0.00083851        0.95366773        0.02198724        0.00035291
      53         -1.773797        1.000000        0.00023246        0.96182102        0.00579061        0.00061835
      54         -1.773665        1.000000        0.00071533        0.95142999        0.02530395        0.00027689
      55         -1.772725        1.000000        0.00008663        0.96092684        0.00676991        0.00036598
      56         -1.772546        1.000000        0.00006617        0.96165110        0.00563113        0.00038227
      57         -1.772041        1.000000        0.00008775        0.96133132        0.00698883        0.00037646
      58         -1.771662        1.000000        0.00007386        0.96254497        0.00519350        0.00039875
      59         -1.771364        1.000000        0.00007595        0.96236728        0.00573346        0.00037083
      60         -1.770813        1.000000        0.00048511        0.96282028        0.00439742        0.00046372
      61         -1.770640        1.000000        0.00073315        0.96299791        0.00598191        0.00035145
      62         -1.770449        1.000000        0.00212016        0.96242238        0.00690655        0.00034883
      63         -1.770188        1.000000        0.00438771        0.96409079        0.00606025        0.00033720
      64         -1.770126        1.000000        0.00563890        0.96255851        0.00727980        0.00030353
      65         -1.769991        1.000000        0.00280586        0.96430796        0.00492068        0.00033344
      66         -1.769845        1.000000        0.00259245        0.96338446        0.00554580        0.00033837
      67         -1.769763        1.000000        0.00366638        0.96449222        0.00715271        0.00035325
      68         -1.769661        1.000000        0.00232308        0.96475613        0.00524498        0.00036189
      69         -1.769465        1.000000        0.00297019        0.96519693        0.00839768        0.00036679
      70         -1.769351        1.000000        0.00213323        0.96445720        0.00584630        0.00038300
      71         -1.769328        1.000000        0.00204129        0.96538813        0.00554400        0.00037498
      72         -1.769216        1.000000        0.00471773        0.96396680        0.00765628        0.00040207
      73         -1.769129        1.000000        0.00184246        0.96423928        0.00604518        0.00042908
      74         -1.769070        1.000000        0.00094166        0.96545640        0.00755822        0.00040525
      75         -1.768941        1.000000        0.00044730        0.96624550        0.00448781        0.00045366
      76         -1.768822        1.000000        0.00073327        0.96380134        0.00696648        0.00039395
      77         -1.768707        1.000000        0.00083104        0.96491710        0.00672527        0.00038738
      78         -1.768585        1.000000        0.00136332        0.96722333        0.00974939        0.00037182
      79         -1.768439        1.000000        0.00210152        0.96614864        0.00695596        0.00037489
      80         -1.768329        1.000000        0.00103071        0.96527212        0.00754398        0.00033368
      81         -1.768089        1.000000        0.00059971        0.96245031        0.00609486        0.00037516
      82         -1.767883        1.000000        0.00030958        0.96616497        0.00390631        0.00045866
      83         -1.767662        1.000000        0.00037475        0.96536864        0.00391670        0.00038712
      84         -1.767495        1.000000        0.00180304        0.96820415        0.00628865        0.00037783
      85         -1.767311        1.000000        0.00195480        0.96638323        0.00681298        0.00038498
      86         -1.767266        1.000000        0.00502779        0.96822440        0.00722365        0.00023672
      87         -1.767060        1.000000        0.00062498        0.96295963        0.00647158        0.00038398
      88         -1.767025        1.000000        0.00053702        0.96415235        0.00435827        0.00040952
      89         -1.766872        1.000000        0.00231231        0.96652629        0.01067955        0.00039574
      90         -1.766524        1.000000        0.00049729        0.96481428        0.00546761        0.00041515
      91         -1.766405        1.000000        0.00015415        0.96412152        0.00370424        0.00042437
      92         -1.766254        1.000000        0.00045786        0.96551307        0.00363694        0.00047097
      93         -1.766123        1.000000        0.00065137        0.96594360        0.00653061        0.00043757
      94         -1.765857        1.000000        0.00151973        0.96314729        0.01353069        0.00034585
      95         -1.765515        1.000000        0.00030139        0.96888585        0.00453095        0.00038784
      96         -1.765181        1.000000        0.00068019        0.96563877        0.00650465        0.00040798
      97         -1.765105        1.000000        0.00147143        0.96874409        0.00786820        0.00037530
      98         -1.764967        1.000000        0.00112371        0.97141216        0.00831636        0.00042698
      99         -1.764710        1.000000        0.00064235        0.97097812        0.00612500        0.00040448
     100         -1.764440        1.000000        0.00090866        0.96817337        0.01113442        0.00050733
     101         -1.764248        1.000000        0.00158996        0.96849141        0.01141579        0.00038687
     102         -1.763945        1.000000        0.00105515        0.96755784        0.00756725        0.00043389
     103         -1.763804        1.000000        0.00073653        0.96757711        0.00536134        0.00043442
     104         -1.763351        1.000000        0.00449184        0.96742039        0.01155465        0.00035496
     105         -1.763205        1.000000        0.00141477        0.96962637        0.01018584        0.00040769
     106         -1.763107        1.000000        0.00484255        0.96791497        0.01085702        0.00036299
     107         -1.762531        1.000000        0.00195666        0.97350065        0.00912751        0.00034991
     108         -1.762343        1.000000        0.00309263        0.97528984        0.00684066        0.00027315
     109         -1.761453        1.000000        0.00212393        0.97622589        0.00666249        0.00034893
     110         -1.760969        1.000000        0.00189944        0.97688883        0.00638637        0.00032811
     111         -1.760481        1.000000        0.00090758        0.97923655        0.00549024        0.00032568
     112         -1.760009        1.000000        0.00234120        0.97631486        0.00598623        0.00037904
     113         -1.759531        1.000000        0.00074444        0.98102198        0.00464574        0.00035085
     114         -1.759105        1.000000        0.00216565        0.97466208        0.00761553        0.00040014
     115         -1.758777        1.000000        0.00027760        0.98207807        0.00098805        0.00147475
     116         -1.757462        1.000000        0.00008910        0.98432268        0.00098170        0.00144673
     117         -1.756221        1.000000        0.00011991        0.98239210        0.00088754        0.00142120
     118         -1.755333        1.000000        0.00005243        0.98698049        0.00079145        0.00128191
     119         -1.754385        1.000000        0.00008990        0.98619331        0.00093436        0.00128116
     120         -1.752742        1.000000        0.00013249        0.98843473        0.00059518        0.00121564
     121         -1.131181        1.000000        0.00000273        0.00000137        0.00000186        0.00000013
     122         -1.128658        1.000000        0.00000213        0.00000118        0.00000256        0.00000016
     123         -1.128000        1.000000        0.00000300        0.00000157        0.00000275        0.00000018
     124         -1.126427        1.000000        0.00000017        0.00000009        0.00000018        0.00000001
     125         -1.120469        1.000000        0.00000095        0.00000052        0.00000129        0.00000011
     126         -1.119202        1.000000        0.00000134        0.00000075        0.00000229        0.00000020
     127         -1.117081        1.000000        0.00000184        0.00000122        0.00000464        0.00000032
     128         -1.116156        1.000000        0.00000308        0.00000186        0.00000642        0.00000058
     129         -1.115054        1.000000        0.00000345        0.00000182        0.00000430        0.00000031
     130         -1.111818        1.000000        0.00000230        0.00000147        0.00000568        0.00000043
     131         -1.111610        1.000000        0.00000155        0.00000093        0.00000314        0.00000021
     132         -1.110976        1.000000        0.00000199        0.00000100        0.00000184        0.00000015
     133         -1.109888        1.000000        0.00000282        0.00000154        0.00000448        0.00000034
     134         -1.108601        1.000000        0.00000014        0.00000009        0.00000037        0.00000004
     135         -1.108036        1.000000        0.00000189        0.00000111        0.00000391        0.00000029
     136         -1.107349        1.000000        0.00000166        0.00000104        0.00000376        0.00000025
     137         -1.106797        1.000000        0.00000045        0.00000026        0.00000086        0.00000008
     138         -1.106077        1.000000        0.00000156        0.00000101        0.00000454        0.00000030
     139         -1.104162        1.000000        0.00000634        0.00000429        0.00001938        0.00000160
     140         -1.102892        1.000000        0.00000110        0.00000080        0.00000349        0.00000035
     141         -1.102196        1.000000        0.00000086        0.00000054        0.00000248        0.00000020
     142         -1.101581        1.000000        0.00000133        0.00000091        0.00000404        0.00000031
     143         -1.101215        1.000000        0.00000152        0.00000107        0.00000539        0.00000045
     144         -1.099602        1.000000        0.00000269        0.00000155        0.00000524        0.00000050
     145         -1.098107        1.000000        0.00000117        0.00000094        0.00000603        0.00000074
     146         -1.097450        1.000000        0.00000200        0.00000150        0.00000897        0.00000092
     147         -1.097046        1.000000        0.00000069        0.00000049        0.00000292        0.00000032
     148         -1.095795        1.000000        0.00000293        0.00000185        0.00000726        0.00000062
     149         -1.095192        1.000000        0.00000125        0.00000103        0.00000686        0.00000089
     150         -1.093515        1.000000        0.00000171        0.00000125        0.00000625        0.00000054
     151         -1.093123        1.000000        0.00000334        0.00000258        0.00002059        0.00000316
     152         -1.092614        1.000000        0.00000149        0.00000109        0.00000529        0.00000048
     153         -1.091821        1.000000        0.00000147        0.00000094        0.00000359        0.00000029
     154         -1.090761        1.000000        0.00000965        0.00000634        0.00002753        0.00000237
     155         -1.090597        1.000000        0.00000998        0.00001031        0.00011180        0.00001976
     156         -1.089544        1.000000        0.00001941        0.00001552        0.00010251        0.00001417
     157         -1.088154        1.000000        0.00000738        0.00000643        0.00005803        0.00000932
     158         -1.086960        1.000000        0.00000780        0.00000577        0.00002932        0.00000288
     159         -1.086718        1.000000        0.00000448        0.00000373        0.00002222        0.00000214
     160         -1.085525        1.000000        0.00001168        0.00000755        0.00003229        0.00000305
     161         -1.084219        1.000000        0.00000075        0.00000073        0.00000419        0.00000043
     162         -1.082734        1.000000        0.00000462        0.00000392        0.00002158        0.00000195
     163         -1.082381        1.000000        0.00001546        0.00001364        0.00007384        0.00000688
     164         -1.080807        1.000000        0.00000299        0.00000231        0.00001164        0.00000138
     165         -1.080293        1.000000        0.00000847        0.00000794        0.00004029        0.00000432
     166         -1.079453        1.000000        0.00000106        0.00000115        0.00001058        0.00000178
     167         -1.078246        1.000000        0.00000072        0.00000067        0.00000429        0.00000049
     168         -1.077774        1.000000        0.00001305        0.00000989        0.00004467        0.00000490
     169         -1.077143        1.000000        0.00000216        0.00000165        0.00001059        0.00000127
     170         -1.076426        1.000000        0.00000069        0.00000050        0.00000278        0.00000028
     171         -1.076145        1.000000        0.00000246        0.00000218        0.00001257        0.00000161
     172         -1.074526        1.000000        0.00001184        0.00001106        0.00005264        0.00000571
     173         -1.074368        1.000000        0.00000782        0.00000612        0.00003004        0.00000324
     174         -1.073652        1.000000        0.00000690        0.00000568        0.00003314        0.00000442
     175         -1.072808        1.000000        0.00000161        0.00000141        0.00000944        0.00000124
     176         -1.072152        1.000000        0.00000064        0.00000058        0.00000350        0.00000045
     177         -1.071192        1.000000        0.00000166        0.00000139        0.00000903        0.00000101
     178         -1.070444        1.000000        0.00000660        0.00000401        0.00002964        0.00000486
     179         -1.070141        1.000000        0.00000633        0.00000454        0.00003214        0.00000554
     180         -1.069416        1.000000        0.00000125        0.00000138        0.00001141        0.00000184
     181         -1.069179        1.000000        0.00000217        0.00000254        0.00001671        0.00000222
     182         -1.067610        1.000000        0.00000143        0.00000137        0.00001394        0.00000262
     183         -1.066240        1.000000        0.00000156        0.00000156        0.00001495        0.00000283
     184         -1.065124        1.000000        0.00000206        0.00000203        0.00001349        0.00000176
     185         -1.064565        1.000000        0.00000320        0.00000276        0.00002012        0.00000286
     186         -1.063575        1.000000        0.00000490        0.00000419        0.00003132        0.00000418
     187         -1.062901        1.000000        0.00000575        0.00000541        0.00004652        0.00000709
     188         -1.062274        1.000000        0.00000440        0.00000423        0.00003729        0.00000557
     189         -1.061481        1.000000        0.00000198        0.00000197        0.00002017        0.00000344
     190         -1.061312        1.000000        0.00000602        0.00000479        0.00003326        0.00000358
     191         -1.060592        1.000000        0.00000115        0.00000117        0.00001195        0.00000238
     192         -1.059297        1.000000        0.00000109        0.00000129        0.00000934        0.00000128
     193         -1.058643        1.000000        0.00000668        0.00000510        0.00003602        0.00000393
     194         -1.058262        1.000000        0.00000493        0.00000456        0.00004822        0.00000813
     195         -1.057127        1.000000        0.00000528        0.00000461        0.00003442        0.00000538
     196         -1.056224        1.000000        0.00001208        0.00001089        0.00008184        0.00001092
     197         -1.056050        1.000000        0.00000358        0.00000481        0.00003695        0.00000459
     198         -1.054881        1.000000        0.00000826        0.00000806        0.00005730        0.00000711
     199         -1.054669        1.000000        0.00000290        0.00000272        0.00002012        0.00000230
     200         -1.053605        1.000000        0.00000051        0.00000063        0.00000485        0.00000090
     201         -1.053457        1.000000        0.00000208        0.00000189        0.00001382        0.00000189
     202         -1.052589        1.000000        0.00000384        0.00000291        0.00001995        0.00000206
     203         -1.052089        1.000000        0.00000600        0.00000538        0.00004878        0.00000671
     204         -1.051299        1.000000        0.00000728        0.00000604        0.00005237        0.00000720
     205         -1.050676        1.000000        0.00001169        0.00000895        0.00007867        0.00001060
     206         -1.050307        1.000000        0.00000534        0.00000388        0.00002614        0.00000304
     207         -1.049921        1.000000        0.00001877        0.00001503        0.00013451        0.00001814
     208         -1.049485        1.000000        0.00000305        0.00000278        0.00002404        0.00000335
     209         -1.049126        1.000000        0.00000227        0.00000162        0.00001218        0.00000163
     210         -1.048445        1.000000        0.00000427        0.00000331        0.00002414        0.00000329
     211         -1.048201        1.000000        0.00000236        0.00000215        0.00001366        0.00000184
     212         -1.047911        1.000000        0.00000225        0.00000166        0.00001241        0.00000180
     213         -1.047620        1.000000        0.00000343        0.00000255        0.00001783        0.00000218
     214         -1.046931        1.000000        0.00000456        0.00000389        0.00003664        0.00000493
     215         -1.046733        1.000000        0.00000084        0.00000066        0.00000417        0.00000052
     216         -1.046634        1.000000        0.00000853        0.00000689        0.00006071        0.00000815
     217         -1.045930        1.000000        0.00000159        0.00000129        0.00001100        0.00000151
     218         -1.045069        1.000000        0.00000178        0.00000172        0.00001296        0.00000164
     219         -1.044350        1.000000        0.00000132        0.00000112        0.00000872        0.00000105
     220         -1.043623        1.000000        0.00000468        0.00000433        0.00003323        0.00000446
     221         -1.043421        1.000000        0.00001670        0.00001258        0.00007074        0.00000794
     222         -1.042778        1.000000        0.00000024        0.00000021        0.00000127        0.00000014
     223         -1.042701        1.000000        0.00000171        0.00000148        0.00000991        0.00000106
     224         -1.042424        1.000000        0.00000562        0.00000504        0.00003475        0.00000400
     225         -1.041682        1.000000        0.00000529        0.00000460        0.00002482        0.00000283
     226         -1.041498        1.000000        0.00000895        0.00000778        0.00006378        0.00000897
     227         -1.040837        1.000000        0.00001141        0.00001001        0.00005513        0.00000593
     228         -1.040496        1.000000        0.00000156        0.00000140        0.00001027        0.00000136
     229         -1.040151        1.000000        0.00000444        0.00000348        0.00002218        0.00000251
     230         -1.039686        1.000000        0.00000126        0.00000108        0.00000688        0.00000082
     231         -1.038961        1.000000        0.00000216        0.00000182        0.00001051        0.00000116
     232         -1.038553        1.000000        0.00000114        0.00000094        0.00000497        0.00000059
     233         -1.038476        1.000000        0.00000242        0.00000205        0.00001252        0.00000140
     234         -1.038152        1.000000        0.00000035        0.00000033        0.00000263        0.00000033
     235         -1.038041        1.000000        0.00000004        0.00000004        0.00000022        0.00000003
     236         -1.036855        1.000000        0.00000294        0.00000263        0.00001739        0.00000191
     237         -1.036488        1.000000        0.00000261        0.00000227        0.00001449        0.00000166
     238         -1.036186        1.000000        0.00000045        0.00000038        0.00000224        0.00000024
     239         -1.036068        1.000000        0.00000028        0.00000027        0.00000251        0.00000033
     240         -1.035757        1.000000        0.00000283        0.00000249        0.00001260        0.00000137
     241         -1.035291        1.000000        0.00000363        0.00000329        0.00001901        0.00000197
     242         -1.035048        1.000000        0.00000035        0.00000035        0.00000268        0.00000034
     243         -1.035000        1.000000        0.00000031        0.00000033        0.00000243        0.00000033
     244         -1.034454        1.000000        0.00000091        0.00000074        0.00000446        0.00000049
     245         -1.034219        1.000000        0.00000143        0.00000118        0.00000760        0.00000092
     246         -1.033874        1.000000        0.00000335        0.00000277        0.00001653        0.00000162
     247         -1.033507        1.000000        0.00000020        0.00000017        0.00000101        0.00000011
     248         -1.033219        1.000000        0.00000286        0.00000236        0.00001505        0.00000157
     249         -1.033056        1.000000        0.00000139        0.00000118        0.00000730        0.00000076
     250         -1.032307        1.000000        0.00000200        0.00000164        0.00000917        0.00000096
     251         -1.031324        1.000000        0.00000652        0.00000577        0.00003120        0.00000322
     252         -1.031144        1.000000        0.00000154        0.00000142        0.00000887        0.00000106
     253         -1.030643        1.000000        0.00000159        0.00000161        0.00001136        0.00000150
     254         -1.030284        1.000000        0.00000127        0.00000130        0.00000828        0.00000103
     255         -1.030062        1.000000        0.00000069        0.00000070        0.00000404        0.00000047
     256         -1.029818        1.000000        0.00000085        0.00000093        0.00000558        0.00000080
     257         -1.028552        1.000000        0.00000013        0.00000014        0.00000058        0.00000007
     258         -1.027578        1.000000        0.00000144        0.00000146        0.00000742        0.00000077
     259         -1.027121        1.000000        0.00000088        0.00000078        0.00000517        0.00000066