# Projected DOS for list 252 of 1 atoms, at iteration step i = 0, E(Fermi) =    -0.245567 a.u.
#     MO Eigenvalue [a.u.]      Occupation                 s                 p                 d
       1         -3.122063        1.000000        0.00073030        0.00124992        0.00010587
       2         -3.121278        1.000000        0.00110167        0.00086080        0.00001724
       3         -3.121021        1.000000        0.00267638        0.00555140        0.00040535
       4         -3.120578        1.000000        0.00001429        0.00038690        0.00004890
       5         -3.120271        1.000000        0.00010251        0.00040613        0.00005003
       6         -3.119857        1.000000        0.00000597        0.00012972        0.00002005
       7         -3.119652        1.000000        0.00003501        0.00009581        0.00001151
       8         -3.119624        1.000000        0.00011401        0.00044521        0.00005610
       9         -3.119219        1.000000        0.00046375        0.00104852        0.00009887
      10         -3.119023        1.000000        0.00094268        0.00234505        0.00024566
      11         -3.118913        1.000000        0.00034721        0.00141514        0.00017840
      12         -3.118874        1.000000        0.00006992        0.00024979        0.00002644
      13         -3.118317        1.000000        0.00007172        0.00046712        0.00005548
      14         -3.118249        1.000000        0.00100839        0.00508899        0.00074036
      15         -3.117895        1.000000        0.00021143        0.00085272        0.00011907
      16         -3.117383        1.000000        0.00000038        0.00000073        0.00000019
      17         -3.117165        1.000000        0.00004205        0.00017658        0.00002546
      18         -3.116815        1.000000        0.00000218        0.00000926        0.00000088
      19         -3.116436        1.000000        0.00000275        0.00001175        0.00000118
      20         -3.116021        1.000000        0.00001647        0.00009344        0.00000979
      21         -3.115852        1.000000        0.00000022        0.00000146        0.00000012
      22         -3.115668        1.000000        0.00000057        0.00000459        0.00000052
      23         -3.115368        1.000000        0.00001632        0.00004905        0.00000405
      24         -3.115339        1.000000        0.00000125        0.00000380        0.00000037
      25         -3.115041        1.000000        0.00000044        0.00000071        0.00000023
      26         -3.114366        1.000000        0.00000242        0.00004017        0.00000573
      27         -3.113951        1.000000        0.00000026        0.00000032        0.00000003
      28         -3.113764        1.000000        0.00000041        0.00000873        0.00000101
      29         -3.112534        1.000000        0.00000001        0.00000004        0.00000002
      30         -3.111679        1.000000        0.00000132        0.00000202        0.00000039
      31         -1.784233        1.000000        0.00022617        0.00057369        0.00003589
      32         -1.782870        1.000000        0.00025892        0.00072800        0.00007105
      33         -1.782324        1.000000        0.00001861        0.00008219        0.00002134
      34         -1.782130        1.000000        0.00007561        0.00020365        0.00001463
      35         -1.781736        1.000000        0.00093422        0.00243856        0.00018973
      36         -1.781230        1.000000        0.00008284        0.00027592        0.00004182
      37         -1.780847        1.000000        0.00000177        0.00014010        0.00007448
      38         -1.780487        1.000000        0.00000305        0.00008733        0.00004433
      39         -1.780184        1.000000        0.00018489        0.00055956        0.00006715
      40         -1.779550        1.000000        0.00017095        0.00037825        0.00002215
      41         -1.779259        1.000000        0.00003370        0.00016357        0.00003598
      42         -1.778921        1.000000        0.00017426        0.00052253        0.00009622
      43         -1.778390        1.000000        0.00000128        0.00003250        0.00001755
      44         -1.778140        1.000000        0.00002245        0.00005671        0.00000687
      45         -1.777912        1.000000        0.00000681        0.00004249        0.00001134
      46         -1.777514        1.000000        0.00026084        0.00062686        0.00004056
      47         -1.777362        1.000000        0.00006744        0.00048722        0.00016904
      48         -1.776787        1.000000        0.00000079        0.00004612        0.00001660
      49         -1.776537        1.000000        0.00003934        0.00012438        0.00002052
      50         -1.776457        1.000000        0.00000036        0.00001678        0.00000912
      51         -1.776029        1.000000        0.00001817        0.00011984        0.00002934
      52         -1.774038        1.000000        0.00000081        0.00009351        0.00006004
      53         -1.773797        1.000000        0.00032002        0.00056996        0.00003874
      54         -1.773665        1.000000        0.00018725        0.00048301        0.00007647
      55         -1.772725        1.000000        0.00007248        0.00033492        0.00010053
      56         -1.772546        1.000000        0.00052290        0.00094108        0.00002146
      57         -1.772041        1.000000        0.00001120        0.00021678        0.00009233
      58         -1.771662        1.000000        0.00032877        0.00090687        0.00015655
      59         -1.771364        1.000000        0.00031344        0.00064814        0.00003935
      60         -1.770813        1.000000        0.00000659        0.00006808        0.00003491
      61         -1.770640        1.000000        0.00021980        0.00056797        0.00007588
      62         -1.770449        1.000000        0.00002129        0.00020382        0.00008328
      63         -1.770188        1.000000        0.00000091        0.00001807        0.00001416
      64         -1.770126        1.000000        0.00003852        0.00040962        0.00015819
      65         -1.769991        1.000000        0.00000031        0.00007289        0.00006540
      66         -1.769845        1.000000        0.00000126        0.00031167        0.00016604
      67         -1.769763        1.000000        0.00001517        0.00007991        0.00001620
      68         -1.769661        1.000000        0.00003212        0.00055494        0.00020129
      69         -1.769465        1.000000        0.00000490        0.00054671        0.00024281
      70         -1.769351        1.000000        0.00000142        0.00033684        0.00015446
      71         -1.769328        1.000000        0.00019667        0.00036177        0.00000706
      72         -1.769216        1.000000        0.00000420        0.00010740        0.00005197
      73         -1.769129        1.000000        0.00000220        0.00120634        0.00048923
      74         -1.769070        1.000000        0.00012497        0.00033034        0.00006704
      75         -1.768941        1.000000        0.00010651        0.00127342        0.00049734
      76         -1.768822        1.000000        0.00000231        0.00040212        0.00014938
      77         -1.768707        1.000000        0.00000207        0.00019656        0.00007321
      78         -1.768585        1.000000        0.00001526        0.00018228        0.00008430
      79         -1.768439        1.000000        0.00001917        0.00026502        0.00012951
      80         -1.768329        1.000000        0.00000703        0.00015186        0.00008903
      81         -1.768089        1.000000        0.00001087        0.00029023        0.00011994
      82         -1.767883        1.000000        0.00000149        0.00007948        0.00002775
      83         -1.767662        1.000000        0.00013174        0.00124706        0.00045679
      84         -1.767495        1.000000        0.00000226        0.00003240        0.00001058
      85         -1.767311        1.000000        0.00001443        0.00005887        0.00003295
      86         -1.767266        1.000000        0.00002698        0.00011503        0.00006020
      87         -1.767060        1.000000        0.00001103        0.00007935        0.00002693
      88         -1.767025        1.000000        0.00002014        0.00003651        0.00000467
      89         -1.766872        1.000000        0.00007410        0.00014260        0.00001559
      90         -1.766524        1.000000        0.00000861        0.00003265        0.00000965
      91         -1.766405        1.000000        0.00000064        0.00005045        0.00002788
      92         -1.766254        1.000000        0.00002634        0.00017977        0.00005330
      93         -1.766123        1.000000        0.00001973        0.00037642        0.00017871
      94         -1.765857        1.000000        0.00000770        0.00033417        0.00019175
      95         -1.765515        1.000000        0.00001916        0.00004275        0.00000931
      96         -1.765181        1.000000        0.00000330        0.00005084        0.00002794
      97         -1.765105        1.000000        0.00005662        0.00018727        0.00004401
      98         -1.764967        1.000000        0.00000556        0.00011348        0.00004297
      99         -1.764710        1.000000        0.00001486        0.00002702        0.00001097
     100         -1.764440        1.000000        0.00000560        0.00013799        0.00006731
     101         -1.764248        1.000000        0.00001355        0.00021776        0.00010831
     102         -1.763945        1.000000        0.00000109        0.00015465        0.00009228
     103         -1.763804        1.000000        0.00000280        0.00002821        0.00002229
     104         -1.763351        1.000000        0.00001249        0.00012942        0.00013202
     105         -1.763205        1.000000        0.00000187        0.00008719        0.00005845
     106         -1.763107        1.000000        0.00000013        0.00006047        0.00001749
     107         -1.762531        1.000000        0.00000744        0.00005564        0.00003252
     108         -1.762343        1.000000        0.00001159        0.00006755        0.00005400
     109         -1.761453        1.000000        0.00000226        0.00001337        0.00000364
     110         -1.760969        1.000000        0.00000075        0.00011752        0.00006197
     111         -1.760481        1.000000        0.00000371        0.00000226        0.00000391
     112         -1.760009        1.000000        0.00000000        0.00003945        0.00001349
     113         -1.759531        1.000000        0.00000235        0.00005485        0.00002996
     114         -1.759105        1.000000        0.00000006        0.00000668        0.00000555
     115         -1.758777        1.000000        0.00000158        0.00034121        0.00017948
     116         -1.757462        1.000000        0.00000076        0.00032761        0.00014259
     117         -1.756221        1.000000        0.00000041        0.00000302        0.00002003
     118         -1.755333        1.000000        0.00000050        0.00002590        0.00006231
     119         -1.754385        1.000000        0.00000009        0.00000482        0.00000268
     120         -1.752742        1.000000        0.00000000        0.00000029        0.00000204
     121         -1.131181        1.000000        0.00000000        0.00000001        0.00000000
     122         -1.128658        1.000000        0.00000000        0.00000001        0.00000000
     123         -1.128000        1.000000        0.00000000        0.00000001        0.00000000
     124         -1.126427        1.000000        0.00000000        0.00000000        0.00000000
     125         -1.120469        1.000000        0.00000000        0.00000001        0.00000000
     126         -1.119202        1.000000        0.00000000        0.00000001        0.00000000
     127         -1.117081        1.000000        0.00000000        0.00000001        0.00000000
     128         -1.116156        1.000000        0.00000000        0.00000000        0.00000000
     129         -1.115054        1.000000        0.00000000        0.00000000        0.00000000
     130         -1.111818        1.000000        0.00000001        0.00000002        0.00000000
     131         -1.111610        1.000000        0.00000001        0.00000002        0.00000000
     132         -1.110976        1.000000        0.00000000        0.00000001        0.00000000
     133         -1.109888        1.000000        0.00000000        0.00000001        0.00000000
     134         -1.108601        1.000000        0.00000000        0.00000000        0.00000000
     135         -1.108036        1.000000        0.00000000        0.00000000        0.00000000
     136         -1.107349        1.000000        0.00000001        0.00000001        0.00000000
     137         -1.106797        1.000000        0.00000000        0.00000000        0.00000000
     138         -1.106077        1.000000        0.00000001        0.00000002        0.00000000
     139         -1.104162        1.000000        0.00000001        0.00000000        0.00000000
     140         -1.102892        1.000000        0.00000001        0.00000002        0.00000000
     141         -1.102196        1.000000        0.00000000        0.00000000        0.00000000
     142         -1.101581        1.000000        0.00000000        0.00000001        0.00000000
     143         -1.101215        1.000000        0.00000000        0.00000000        0.00000000
     144         -1.099602        1.000000        0.00000001        0.00000001        0.00000000
     145         -1.098107        1.000000        0.00000001        0.00000001        0.00000000
     146         -1.097450        1.000000        0.00000002        0.00000001        0.00000000
     147         -1.097046        1.000000        0.00000000        0.00000000        0.00000000
     148         -1.095795        1.000000        0.00000003        0.00000002        0.00000000
     149         -1.095192        1.000000        0.00000000        0.00000000        0.00000000
     150         -1.093515        1.000000        0.00000002        0.00000001        0.00000000
     151         -1.093123        1.000000        0.00000003        0.00000001        0.00000000
     152         -1.092614        1.000000        0.00000000        0.00000000        0.00000000
     153         -1.091821        1.000000        0.00000001        0.00000001        0.00000000
     154         -1.090761        1.000000        0.00000002        0.00000002        0.00000000
     155         -1.090597        1.000000        0.00000000        0.00000000        0.00000000
     156         -1.089544        1.000000        0.00000000        0.00000001        0.00000000
     157         -1.088154        1.000000        0.00000000        0.00000000        0.00000000
     158         -1.086960        1.000000        0.00000000        0.00000000        0.00000000
     159         -1.086718        1.000000        0.00000000        0.00000000        0.00000000
     160         -1.085525        1.000000        0.00000001        0.00000001        0.00000000
     161         -1.084219        1.000000        0.00000002        0.00000001        0.00000000
     162         -1.082734        1.000000        0.00000000        0.00000000        0.00000000
     163         -1.082381        1.000000        0.00000006        0.00000004        0.00000001
     164         -1.080807        1.000000        0.00000006        0.00000002        0.00000000
     165         -1.080293        1.000000        0.00000029        0.00000013        0.00000001
     166         -1.079453        1.000000        0.00000000        0.00000000        0.00000000
     167         -1.078246        1.000000        0.00000000        0.00000000        0.00000000
     168         -1.077774        1.000000        0.00000031        0.00000013        0.00000001
     169         -1.077143        1.000000        0.00000001        0.00000001        0.00000000
     170         -1.076426        1.000000        0.00000000        0.00000000        0.00000000
     171         -1.076145        1.000000        0.00000008        0.00000003        0.00000000
     172         -1.074526        1.000000        0.00000043        0.00000016        0.00000002
     173         -1.074368        1.000000        0.00000018        0.00000006        0.00000001
     174         -1.073652        1.000000        0.00000017        0.00000005        0.00000001
     175         -1.072808        1.000000        0.00000001        0.00000000        0.00000000
     176         -1.072152        1.000000        0.00000002        0.00000001        0.00000000
     177         -1.071192        1.000000        0.00000003        0.00000001        0.00000000
     178         -1.070444        1.000000        0.00000002        0.00000000        0.00000000
     179         -1.070141        1.000000        0.00000002        0.00000000        0.00000000
     180         -1.069416        1.000000        0.00000002        0.00000000        0.00000000
     181         -1.069179        1.000000        0.00000005        0.00000001        0.00000000
     182         -1.067610        1.000000        0.00000000        0.00000000        0.00000000
     183         -1.066240        1.000000        0.00000001        0.00000000        0.00000000
     184         -1.065124        1.000000        0.00000003        0.00000001        0.00000000
     185         -1.064565        1.000000        0.00000001        0.00000000        0.00000000
     186         -1.063575        1.000000        0.00000001        0.00000001        0.00000000
     187         -1.062901        1.000000        0.00000002        0.00000001        0.00000000
     188         -1.062274        1.000000        0.00000001        0.00000001        0.00000000
     189         -1.061481        1.000000        0.00000000        0.00000001        0.00000000
     190         -1.061312        1.000000        0.00000001        0.00000002        0.00000000
     191         -1.060592        1.000000        0.00000000        0.00000000        0.00000000
     192         -1.059297        1.000000        0.00000000        0.00000000        0.00000000
     193         -1.058643        1.000000        0.00000000        0.00000002        0.00000000
     194         -1.058262        1.000000        0.00000000        0.00000001        0.00000000
     195         -1.057127        1.000000        0.00000001        0.00000001        0.00000000
     196         -1.056224        1.000000        0.00000001        0.00000002        0.00000000
     197         -1.056050        1.000000        0.00000000        0.00000001        0.00000000
     198         -1.054881        1.000000        0.00000001        0.00000002        0.00000000
     199         -1.054669        1.000000        0.00000000        0.00000001        0.00000000
     200         -1.053605        1.000000        0.00000000        0.00000000        0.00000000
     201         -1.053457        1.000000        0.00000000        0.00000001        0.00000000
     202         -1.052589        1.000000        0.00000001        0.00000001        0.00000000
     203         -1.052089        1.000000        0.00000000        0.00000002        0.00000000
     204         -1.051299        1.000000        0.00000000        0.00000002        0.00000000
     205         -1.050676        1.000000        0.00000000        0.00000003        0.00000000
     206         -1.050307        1.000000        0.00000000        0.00000001        0.00000000
     207         -1.049921        1.000000        0.00000001        0.00000005        0.00000000
     208         -1.049485        1.000000        0.00000000        0.00000001        0.00000000
     209         -1.049126        1.000000        0.00000001        0.00000001        0.00000000
     210         -1.048445        1.000000        0.00000000        0.00000000        0.00000000
     211         -1.048201        1.000000        0.00000000        0.00000000        0.00000000
     212         -1.047911        1.000000        0.00000000        0.00000000        0.00000000
     213         -1.047620        1.000000        0.00000000        0.00000001        0.00000000
     214         -1.046931        1.000000        0.00000000        0.00000001        0.00000000
     215         -1.046733        1.000000        0.00000000        0.00000000        0.00000000
     216         -1.046634        1.000000        0.00000001        0.00000002        0.00000000
     217         -1.045930        1.000000        0.00000000        0.00000000        0.00000000
     218         -1.045069        1.000000        0.00000000        0.00000000        0.00000000
     219         -1.044350        1.000000        0.00000000        0.00000000        0.00000000
     220         -1.043623        1.000000        0.00000000        0.00000001        0.00000000
     221         -1.043421        1.000000        0.00000003        0.00000004        0.00000001
     222         -1.042778        1.000000        0.00000000        0.00000000        0.00000000
     223         -1.042701        1.000000        0.00000000        0.00000001        0.00000000
     224         -1.042424        1.000000        0.00000000        0.00000002        0.00000000
     225         -1.041682        1.000000        0.00000000        0.00000000        0.00000000
     226         -1.041498        1.000000        0.00000000        0.00000004        0.00000000
     227         -1.040837        1.000000        0.00000001        0.00000000        0.00000000
     228         -1.040496        1.000000        0.00000000        0.00000001        0.00000000
     229         -1.040151        1.000000        0.00000001        0.00000001        0.00000000
     230         -1.039686        1.000000        0.00000000        0.00000000        0.00000000
     231         -1.038961        1.000000        0.00000000        0.00000000        0.00000000
     232         -1.038553        1.000000        0.00000000        0.00000000        0.00000000
     233         -1.038476        1.000000        0.00000000        0.00000000        0.00000000
     234         -1.038152        1.000000        0.00000000        0.00000000        0.00000000
     235         -1.038041        1.000000        0.00000000        0.00000000        0.00000000
     236         -1.036855        1.000000        0.00000000        0.00000001        0.00000000
     237         -1.036488        1.000000        0.00000000        0.00000000        0.00000000
     238         -1.036186        1.000000        0.00000000        0.00000000        0.00000000
     239         -1.036068        1.000000        0.00000000        0.00000000        0.00000000
     240         -1.035757        1.000000        0.00000000        0.00000000        0.00000000
     241         -1.035291        1.000000        0.00000000        0.00000000        0.00000000
     242         -1.035048        1.000000        0.00000000        0.00000000        0.00000000
     243         -1.035000        1.000000        0.00000000        0.00000000        0.00000000
     244         -1.034454        1.000000        0.00000000        0.00000000        0.00000000
     245         -1.034219        1.000000        0.00000000        0.00000000        0.00000000
     246         -1.033874        1.000000        0.00000001        0.00000001        0.00000000
     247         -1.033507        1.000000        0.00000000        0.00000000        0.00000000
     248         -1.033219        1.000000        0.00000001        0.00000000        0.00000000
     249         -1.033056        1.000000        0.00000000        0.00000000        0.00000000
     250         -1.032307        1.000000        0.00000000        0.00000000        0.00000000
     251         -1.031324        1.000000        0.00000000        0.00000001        0.00000000
     252         -1.031144        1.000000        0.00000000        0.00000000        0.00000000
     253         -1.030643        1.000000        0.00000000        0.00000000        0.00000000
     254         -1.030284        1.000000        0.00000000        0.00000000        0.00000000
     255         -1.030062        1.000000        0.00000000        0.00000000        0.00000000
     256         -1.029818        1.000000        0.00000000        0.00000000        0.00000000
     257         -1.028552        1.000000        0.00000000        0.00000000        0.00000000
     258         -1.027578        1.000000        0.00000000        0.00000001        0.00000000
     259         -1.027121        1.000000        0.00000000        0.00000000        0.00000000
     260         -1.026880        1.000000        0.00000000        0.00000000        0.00000000
     261         -1.026226        1.000000        0.00000000        0.00000000        0.00000000
     262         -1.025765        1.000000        0.00000000        0.00000000        0.00000000
     263         -1.025299        1.000000        0.00000000        0.00000000        0.00000000
     264         -1.025158        1.000000        0.00000000        0.00000000        0.00000000
     265         -1.025007        1.000000        0.00000000        0.00000001        0.00000000
     266         -1.024422        1.000000        0.00000000        0.00000000        0.00000000
     267         -1.023793        1.000000        0.00000000        0.00000000        0.00000000
     268         -1.023594        1.000000        0.00000000        0.00000000        0.00000000
     269         -1.023069        1.000000        0.00000000        0.00000001        0.00000000
     270         -1.022603        1.000000        0.00000000        0.00000000        0.00000000
     271         -1.022074        1.000000        0.00000000        0.00000000        0.00000000
     272         -1.021695        1.000000        0.00000000        0.00000000        0.00000000
     273         -1.021372        1.000000        0.00000000        0.00000000        0.00000000
     274         -1.021076        1.000000        0.00000000        0.00000000        0.00000000
     275         -1.019492        1.000000        0.00000000        0.00000001        0.00000000
     276         -1.018003        1.000000        0.00000000        0.00000000        0.00000000
     277         -1.016408        1.000000        0.00000000        0.00000000        0.00000000
     278         -1.016278        1.000000        0.00000000        0.00000000        0.00000000
     279         -1.015338        1.000000        0.00000000        0.00000000        0.00000000
     280         -1.013851        1.000000        0.00000000        0.00000000        0.00000000
     281         -1.010223        1.000000        0.00000000        0.00000001        0.00000000
     282         -1.009666        1.000000        0.00000000        0.00000000        0.00000000
     283         -1.007726        1.000000        0.00000000        0.00000000        0.00000001
     284         -1.007300        1.000000        0.00000000        0.00000000        0.00000000
     285         -1.006916        1.000000        0.00000000        0.00000000        0.00000000
     286         -0.889442        1.000000        0.00420054        0.00017887        0.00000312
     287         -0.869424        1.000000        0.00237254        0.00071038        0.00002209
     288         -0.867225        1.000000        0.01610068        0.00058514        0.00002730
     289         -0.864755        1.000000        0.00265058        0.00059494        0.00001708
     290         -0.860947        1.000000        0.00807847        0.00050512        0.00000308
     291         -0.846899        1.000000        0.00248944        0.00028220        0.00004764
     292         -0.844423        1.000000        0.01832337        0.00102394        0.00002950
     293         -0.843782        1.000000        0.00008039        0.00182838        0.00002239
     294         -0.840445        1.000000        0.00948185        0.00131138        0.00002787
     295         -0.821748        1.000000        0.01353648        0.00074720        0.00003829
     296         -0.818927        1.000000        0.01471482        0.00035738        0.00011943
     297         -0.814033        1.000000        0.00262326        0.00019505        0.00007256
     298         -0.808071        1.000000        0.02118135        0.00021848        0.00003700
     299         -0.807076        1.000000        0.00771946        0.00024654        0.00005497
     300         -0.806003        1.000000        0.01656959        0.00103586        0.00002461
     301         -0.805433        1.000000        0.00269689        0.00043914        0.00010810
     302         -0.803208        1.000000        0.00226509        0.00028192        0.00007565
     303         -0.802271        1.000000        0.00024151        0.00044928        0.00003720
     304         -0.801014        1.000000        0.01307579        0.00016163        0.00001087
     305         -0.800419        1.000000        0.01345058        0.00029553        0.00005454
     306         -0.800163        1.000000        0.00039240        0.00078127        0.00003073
     307         -0.798966        1.000000        0.00010215        0.00097318        0.00003288