# Projected DOS for list 120 of 1 atoms, at iteration step i = 0, E(Fermi) =    -0.245567 a.u.
#     MO Eigenvalue [a.u.]      Occupation                 s                 p                 d
       1         -3.122063        1.000000        0.00000000        0.00000000        0.00000000
       2         -3.121278        1.000000        0.00000000        0.00000000        0.00000000
       3         -3.121021        1.000000        0.00000000        0.00000000        0.00000000
       4         -3.120578        1.000000        0.00000000        0.00000000        0.00000000
       5         -3.120271        1.000000        0.00000000        0.00000000        0.00000000
       6         -3.119857        1.000000        0.00000000        0.00000000        0.00000000
       7         -3.119652        1.000000        0.00000000        0.00000000        0.00000000
       8         -3.119624        1.000000        0.00000000        0.00000000        0.00000000
       9         -3.119219        1.000000        0.00000000        0.00000000        0.00000000
      10         -3.119023        1.000000        0.00000000        0.00000000        0.00000000
      11         -3.118913        1.000000        0.00000000        0.00000000        0.00000000
      12         -3.118874        1.000000        0.00000000        0.00000000        0.00000000
      13         -3.118317        1.000000        0.00000000        0.00000000        0.00000000
      14         -3.118249        1.000000        0.00000000        0.00000000        0.00000000
      15         -3.117895        1.000000        0.00000000        0.00000000        0.00000000
      16         -3.117383        1.000000        0.00000000        0.00000000        0.00000000
      17         -3.117165        1.000000        0.00000000        0.00000000        0.00000000
      18         -3.116815        1.000000        0.00000000        0.00000000        0.00000000
      19         -3.116436        1.000000        0.00000000        0.00000000        0.00000000
      20         -3.116021        1.000000        0.00000000        0.00000000        0.00000000
      21         -3.115852        1.000000        0.00000000        0.00000000        0.00000000
      22         -3.115668        1.000000        0.00000000        0.00000000        0.00000000
      23         -3.115368        1.000000        0.00000000        0.00000000        0.00000000
      24         -3.115339        1.000000        0.00000000        0.00000000        0.00000000
      25         -3.115041        1.000000        0.00000000        0.00000000        0.00000000
      26         -3.114366        1.000000        0.00000000        0.00000000        0.00000000
      27         -3.113951        1.000000        0.00000000        0.00000000        0.00000000
      28         -3.113764        1.000000        0.00000000        0.00000000        0.00000000
      29         -3.112534        1.000000        0.00000000        0.00000000        0.00000000
      30         -3.111679        1.000000        0.00000000        0.00000000        0.00000000
      31         -1.784233        1.000000        0.00000000        0.00000000        0.00000000
      32         -1.782870        1.000000        0.00000000        0.00000000        0.00000000
      33         -1.782324        1.000000        0.00000000        0.00000000        0.00000000
      34         -1.782130        1.000000        0.00000000        0.00000000        0.00000000
      35         -1.781736        1.000000        0.00000000        0.00000000        0.00000000
      36         -1.781230        1.000000        0.00000000        0.00000000        0.00000000
      37         -1.780847        1.000000        0.00000000        0.00000000        0.00000000
      38         -1.780487        1.000000        0.00000000        0.00000000        0.00000000
      39         -1.780184        1.000000        0.00000000        0.00000000        0.00000000
      40         -1.779550        1.000000        0.00000000        0.00000000        0.00000000
      41         -1.779259        1.000000        0.00000000        0.00000000        0.00000000
      42         -1.778921        1.000000        0.00000000        0.00000000        0.00000000
      43         -1.778390        1.000000        0.00000000        0.00000000        0.00000000
      44         -1.778140        1.000000        0.00000000        0.00000000        0.00000000
      45         -1.777912        1.000000        0.00000000        0.00000000        0.00000000
      46         -1.777514        1.000000        0.00000000        0.00000000        0.00000000
      47         -1.777362        1.000000        0.00000000        0.00000000        0.00000000
      48         -1.776787        1.000000        0.00000000        0.00000000        0.00000000
      49         -1.776537        1.000000        0.00000000        0.00000000        0.00000000
      50         -1.776457        1.000000        0.00000000        0.00000000        0.00000000
      51         -1.776029        1.000000        0.00000000        0.00000000        0.00000000
      52         -1.774038        1.000000        0.00000000        0.00000000        0.00000000
      53         -1.773797        1.000000        0.00000000        0.00000000        0.00000000
      54         -1.773665        1.000000        0.00000000        0.00000000        0.00000000
      55         -1.772725        1.000000        0.00000000        0.00000000        0.00000000
      56         -1.772546        1.000000        0.00000000        0.00000000        0.00000000
      57         -1.772041        1.000000        0.00000000        0.00000000        0.00000000
      58         -1.771662        1.000000        0.00000000        0.00000000        0.00000000
      59         -1.771364        1.000000        0.00000000        0.00000000        0.00000000
      60         -1.770813        1.000000        0.00000000        0.00000000        0.00000000
      61         -1.770640        1.000000        0.00000000        0.00000000        0.00000000
      62         -1.770449        1.000000        0.00000000        0.00000000        0.00000000
      63         -1.770188        1.000000        0.00000000        0.00000000        0.00000000
      64         -1.770126        1.000000        0.00000000        0.00000000        0.00000000
      65         -1.769991        1.000000        0.00000000        0.00000000        0.00000000
      66         -1.769845        1.000000        0.00000000        0.00000000        0.00000000
      67         -1.769763        1.000000        0.00000000        0.00000000        0.00000000
      68         -1.769661        1.000000        0.00000000        0.00000000        0.00000000
      69         -1.769465        1.000000        0.00000000        0.00000000        0.00000000
      70         -1.769351        1.000000        0.00000000        0.00000000        0.00000000
      71         -1.769328        1.000000        0.00000000        0.00000000        0.00000000
      72         -1.769216        1.000000        0.00000000        0.00000000        0.00000000
      73         -1.769129        1.000000        0.00000000        0.00000000        0.00000000
      74         -1.769070        1.000000        0.00000000        0.00000000        0.00000000
      75         -1.768941        1.000000        0.00000000        0.00000000        0.00000000
      76         -1.768822        1.000000        0.00000000        0.00000000        0.00000000
      77         -1.768707        1.000000        0.00000000        0.00000000        0.00000000
      78         -1.768585        1.000000        0.00000000        0.00000000        0.00000000
      79         -1.768439        1.000000        0.00000000        0.00000000        0.00000000
      80         -1.768329        1.000000        0.00000000        0.00000000        0.00000000
      81         -1.768089        1.000000        0.00000000        0.00000000        0.00000000
      82         -1.767883        1.000000        0.00000000        0.00000000        0.00000000
      83         -1.767662        1.000000        0.00000000        0.00000000        0.00000000
      84         -1.767495        1.000000        0.00000000        0.00000000        0.00000000
      85         -1.767311        1.000000        0.00000000        0.00000000        0.00000000
      86         -1.767266        1.000000        0.00000000        0.00000000        0.00000000
      87         -1.767060        1.000000        0.00000000        0.00000000        0.00000000
      88         -1.767025        1.000000        0.00000000        0.00000000        0.00000000
      89         -1.766872        1.000000        0.00000000        0.00000000        0.00000000
      90         -1.766524        1.000000        0.00000000        0.00000000        0.00000000
      91         -1.766405        1.000000        0.00000000        0.00000000        0.00000000
      92         -1.766254        1.000000        0.00000000        0.00000000        0.00000000
      93         -1.766123        1.000000        0.00000000        0.00000000        0.00000000
      94         -1.765857        1.000000        0.00000000        0.00000000        0.00000000
      95         -1.765515        1.000000        0.00000000        0.00000000        0.00000000
      96         -1.765181        1.000000        0.00000000        0.00000000        0.00000000
      97         -1.765105        1.000000        0.00000000        0.00000000        0.00000000
      98         -1.764967        1.000000        0.00000000        0.00000000        0.00000000
      99         -1.764710        1.000000        0.00000000        0.00000000        0.00000000
     100         -1.764440        1.000000        0.00000000        0.00000000        0.00000000
     101         -1.764248        1.000000        0.00000000        0.00000000        0.00000000
     102         -1.763945        1.000000        0.00000000        0.00000000        0.00000000
     103         -1.763804        1.000000        0.00000000        0.00000000        0.00000000
     104         -1.763351        1.000000        0.00000000        0.00000000        0.00000000
     105         -1.763205        1.000000        0.00000000        0.00000000        0.00000000
     106         -1.763107        1.000000        0.00000000        0.00000000        0.00000000
     107         -1.762531        1.000000        0.00000000        0.00000000        0.00000000
     108         -1.762343        1.000000        0.00000000        0.00000000        0.00000000
     109         -1.761453        1.000000        0.00000000        0.00000000        0.00000000
     110         -1.760969        1.000000        0.00000000        0.00000000        0.00000000
     111         -1.760481        1.000000        0.00000000        0.00000000        0.00000000
     112         -1.760009        1.000000        0.00000000        0.00000000        0.00000000
     113         -1.759531        1.000000        0.00000000        0.00000000        0.00000000
     114         -1.759105        1.000000        0.00000000        0.00000000        0.00000000
     115         -1.758777        1.000000        0.00000000        0.00000000        0.00000000
     116         -1.757462        1.000000        0.00000000        0.00000000        0.00000000
     117         -1.756221        1.000000        0.00000000        0.00000000        0.00000000
     118         -1.755333        1.000000        0.00000000        0.00000000        0.00000000
     119         -1.754385        1.000000        0.00000000        0.00000000        0.00000000
     120         -1.752742        1.000000        0.00000000        0.00000000        0.00000000
     121         -1.131181        1.000000        0.00069414        0.00003766        0.00004154
     122         -1.128658        1.000000        0.00069464        0.00002861        0.00003844
     123         -1.128000        1.000000        0.00000225        0.00007482        0.00000232
     124         -1.126427        1.000000        0.00000161        0.00004067        0.00000084
     125         -1.120469        1.000000        0.00016624        0.00045457        0.00000721
     126         -1.119202        1.000000        0.00151382        0.00026334        0.00008665
     127         -1.117081        1.000000        0.00001101        0.00001234        0.00001549
     128         -1.116156        1.000000        0.00104694        0.00006727        0.00005598
     129         -1.115054        1.000000        0.00001553        0.00006344        0.00000462
     130         -1.111818        1.000000        0.00001516        0.00067825        0.00000110
     131         -1.111610        1.000000        0.00000619        0.00000520        0.00000244
     132         -1.110976        1.000000        0.00333231        0.00048695        0.00010719
     133         -1.109888        1.000000        0.00022528        0.00008417        0.00001431
     134         -1.108601        1.000000        0.00653490        0.00030732        0.00020653
     135         -1.108036        1.000000        0.00071935        0.00074666        0.00002438
     136         -1.107349        1.000000        0.00056315        0.00004809        0.00002880
     137         -1.106797        1.000000        0.00002364        0.00037114        0.00001239
     138         -1.106077        1.000000        0.00006914        0.00016618        0.00000558
     139         -1.104162        1.000000        0.00000137        0.00000508        0.00000568
     140         -1.102892        1.000000        0.00050424        0.00001352        0.00004591
     141         -1.102196        1.000000        0.00231018        0.00006927        0.00009037
     142         -1.101581        1.000000        0.00380435        0.00024921        0.00014447
     143         -1.101215        1.000000        0.00336863        0.00026118        0.00008376
     144         -1.099602        1.000000        0.00226612        0.00025644        0.00007646
     145         -1.098107        1.000000        0.00230751        0.00012434        0.00005582
     146         -1.097450        1.000000        0.00288843        0.00035272        0.00007130
     147         -1.097046        1.000000        0.00008874        0.00030139        0.00001512
     148         -1.095795        1.000000        0.00030448        0.00070532        0.00003923
     149         -1.095192        1.000000        0.00745068        0.00024188        0.00019844
     150         -1.093515        1.000000        0.00024039        0.00074843        0.00002446
     151         -1.093123        1.000000        0.00007042        0.00005136        0.00000898
     152         -1.092614        1.000000        0.00500162        0.00022332        0.00012591
     153         -1.091821        1.000000        0.01455507        0.00046929        0.00030427
     154         -1.090761        1.000000        0.00029346        0.00017523        0.00000590
     155         -1.090597        1.000000        0.00011336        0.00000582        0.00001430
     156         -1.089544        1.000000        0.00302541        0.00018015        0.00005046
     157         -1.088154        1.000000        0.00145172        0.00004604        0.00002716
     158         -1.086960        1.000000        0.00199219        0.00012677        0.00001823
     159         -1.086718        1.000000        0.00720882        0.00045695        0.00015842
     160         -1.085525        1.000000        0.00046849        0.00119169        0.00005108
     161         -1.084219        1.000000        0.00028877        0.00004413        0.00001054
     162         -1.082734        1.000000        0.00069352        0.00024773        0.00001298
     163         -1.082381        1.000000        0.00001102        0.00006363        0.00000314
     164         -1.080807        1.000000        0.00637325        0.00025757        0.00013168
     165         -1.080293        1.000000        0.00002198        0.00013171        0.00001580
     166         -1.079453        1.000000        0.00008039        0.00000690        0.00000184
     167         -1.078246        1.000000        0.00254082        0.00029997        0.00006143
     168         -1.077774        1.000000        0.00394176        0.00058232        0.00006458
     169         -1.077143        1.000000        0.00045976        0.00015070        0.00001261
     170         -1.076426        1.000000        0.00051357        0.00037087        0.00005487
     171         -1.076145        1.000000        0.00599984        0.00070896        0.00009990
     172         -1.074526        1.000000        0.00142722        0.00058541        0.00001524
     173         -1.074368        1.000000        0.00274773        0.00008307        0.00004124
     174         -1.073652        1.000000        0.00250017        0.00019488        0.00003244
     175         -1.072808        1.000000        0.00646045        0.00121821        0.00014967
     176         -1.072152        1.000000        0.00130460        0.00056066        0.00002739
     177         -1.071192        1.000000        0.00333359        0.00074442        0.00004455
     178         -1.070444        1.000000        0.00016265        0.00051540        0.00001342
     179         -1.070141        1.000000        0.00296157        0.00022277        0.00002945
     180         -1.069416        1.000000        0.00230353        0.00022804        0.00003662
     181         -1.069179        1.000000        0.00253831        0.00012824        0.00004509
     182         -1.067610        1.000000        0.00076490        0.00004706        0.00000963
     183         -1.066240        1.000000        0.01108357        0.00029867        0.00011389
     184         -1.065124        1.000000        0.00002993        0.00010154        0.00000510
     185         -1.064565        1.000000        0.00000055        0.00180202        0.00004830
     186         -1.063575        1.000000        0.00024763        0.00007654        0.00002275
     187         -1.062901        1.000000        0.00060327        0.00001406        0.00000981
     188         -1.062274        1.000000        0.00300761        0.00007148        0.00004341
     189         -1.061481        1.000000        0.00173457        0.00204680        0.00004913
     190         -1.061312        1.000000        0.00061280        0.00036170        0.00002873
     191         -1.060592        1.000000        0.00213620        0.00029597        0.00006333
     192         -1.059297        1.000000        0.00111439        0.00004925        0.00003489
     193         -1.058643        1.000000        0.00226706        0.00008725        0.00002854
     194         -1.058262        1.000000        0.00042555        0.00005434        0.00000498
     195         -1.057127        1.000000        0.00039440        0.00043713        0.00001626
     196         -1.056224        1.000000        0.00011933        0.00002015        0.00000604
     197         -1.056050        1.000000        0.00003519        0.00004397        0.00001044
     198         -1.054881        1.000000        0.00007236        0.00002933        0.00000262
     199         -1.054669        1.000000        0.00121432        0.00007078        0.00002012
     200         -1.053605        1.000000        0.00019781        0.00006876        0.00000908
     201         -1.053457        1.000000        0.00007102        0.00006971        0.00000549
     202         -1.052589        1.000000        0.00006037        0.00019879        0.00001183
     203         -1.052089        1.000000        0.00000036        0.00040092        0.00002521
     204         -1.051299        1.000000        0.00046235        0.00017390        0.00002621
     205         -1.050676        1.000000        0.00023437        0.00009188        0.00002328
     206         -1.050307        1.000000        0.00006661        0.00000095        0.00000621
     207         -1.049921        1.000000        0.00001148        0.00010496        0.00003458
     208         -1.049485        1.000000        0.00029392        0.00001815        0.00001012
     209         -1.049126        1.000000        0.00029293        0.00001579        0.00000503
     210         -1.048445        1.000000        0.00090516        0.00019879        0.00006097
     211         -1.048201        1.000000        0.00387810        0.00005959        0.00003461
     212         -1.047911        1.000000        0.00023969        0.00008332        0.00006707
     213         -1.047620        1.000000        0.00114271        0.00009847        0.00002937
     214         -1.046931        1.000000        0.00124590        0.00008531        0.00002384
     215         -1.046733        1.000000        0.00004511        0.00004139        0.00001023
     216         -1.046634        1.000000        0.00095187        0.00010224        0.00001318
     217         -1.045930        1.000000        0.00208342        0.00019495        0.00003817
     218         -1.045069        1.000000        0.00445329        0.00028377        0.00004437
     219         -1.044350        1.000000        0.00002950        0.00002764        0.00000166
     220         -1.043623        1.000000        0.00046667        0.00001433        0.00001018
     221         -1.043421        1.000000        0.00000170        0.00000012        0.00000314
     222         -1.042778        1.000000        0.00288465        0.00014651        0.00004347
     223         -1.042701        1.000000        0.00018576        0.00001522        0.00000827
     224         -1.042424        1.000000        0.00275006        0.00006474        0.00001093
     225         -1.041682        1.000000        0.00003648        0.00002647        0.00000379
     226         -1.041498        1.000000        0.00206496        0.00006315        0.00013146
     227         -1.040837        1.000000        0.00001321        0.00000942        0.00000674
     228         -1.040496        1.000000        0.00398570        0.00019139        0.00005341
     229         -1.040151        1.000000        0.00131032        0.00010752        0.00002940
     230         -1.039686        1.000000        0.00012195        0.00004594        0.00005595
     231         -1.038961        1.000000        0.00030018        0.00006479        0.00001852
     232         -1.038553        1.000000        0.01474993        0.00051631        0.00010793
     233         -1.038476        1.000000        0.00007153        0.00001720        0.00000923
     234         -1.038152        1.000000        0.00002538        0.00001150        0.00002328
     235         -1.038041        1.000000        0.00323241        0.00026067        0.00015793
     236         -1.036855        1.000000        0.00030429        0.00002823        0.00000314
     237         -1.036488        1.000000        0.00194582        0.00002240        0.00004462
     238         -1.036186        1.000000        0.00248146        0.00049988        0.00017200
     239         -1.036068        1.000000        0.00052350        0.00026507        0.00007011
     240         -1.035757        1.000000        0.00011763        0.00007877        0.00006534
     241         -1.035291        1.000000        0.00000831        0.00001787        0.00000269
     242         -1.035048        1.000000        0.00020204        0.00034624        0.00010211
     243         -1.035000        1.000000        0.00022020        0.00006425        0.00001845
     244         -1.034454        1.000000        0.00062065        0.00005303        0.00001267
     245         -1.034219        1.000000        0.00041297        0.00004962        0.00002185
     246         -1.033874        1.000000        0.00095236        0.00003914        0.00005110
     247         -1.033507        1.000000        0.00000033        0.00008166        0.00004841
     248         -1.033219        1.000000        0.00000081        0.00003133        0.00001792
     249         -1.033056        1.000000        0.00001526        0.00006114        0.00001539
     250         -1.032307        1.000000        0.00063116        0.00003690        0.00000880
     251         -1.031324        1.000000        0.00004043        0.00005249        0.00000978
     252         -1.031144        1.000000        0.00501939        0.00014970        0.00000624
     253         -1.030643        1.000000        0.00021408        0.00012469        0.00019698
     254         -1.030284        1.000000        0.00024486        0.00018008        0.00003493
     255         -1.030062        1.000000        0.00009065        0.00007273        0.00003915
     256         -1.029818        1.000000        0.00005781        0.00003626        0.00004695
     257         -1.028552        1.000000        0.00047034        0.00008373        0.00006253
     258         -1.027578        1.000000        0.00020475        0.00003735        0.00001979
     259         -1.027121        1.000000        0.00014574        0.00000488        0.00001565
     260         -1.026880        1.000000        0.00002521        0.00007189        0.00003851
     261         -1.026226        1.000000        0.00024447        0.00033346        0.00032598
     262         -1.025765        1.000000        0.00025109        0.00014795        0.00013401
     263         -1.025299        1.000000        0.00068643        0.00003358        0.00003170
     264         -1.025158        1.000000        0.00338569        0.00019531        0.00019637
     265         -1.025007        1.000000        0.00869623        0.00023055        0.00020835
     266         -1.024422        1.000000        0.00026940        0.00003544        0.00003664
     267         -1.023793        1.000000        0.00001790        0.00003200        0.00002719
     268         -1.023594        1.000000        0.00022661        0.00000721        0.00000646
     269         -1.023069        1.000000        0.00031808        0.00001775        0.00002784
     270         -1.022603        1.000000        0.00016308        0.00001386        0.00000713
     271         -1.022074        1.000000        0.00000348        0.00000793        0.00001901
     272         -1.021695        1.000000        0.00016129        0.00000163        0.00000264
     273         -1.021372        1.000000        0.00000007        0.00000184        0.00000264
     274         -1.021076        1.000000        0.00009236        0.00000146        0.00000037
     275         -1.019492        1.000000        0.00298439        0.00002797        0.00000861
     276         -1.018003        1.000000        0.05359935        0.00042424        0.00011630
     277         -1.016408        1.000000        0.02455568        0.00017189        0.00001671
     278         -1.016278        1.000000        0.23414731        0.00165331        0.00015741
     279         -1.015338        1.000000        0.00180279        0.00001485        0.00000216
     280         -1.013851        1.000000        0.01230199        0.00010766        0.00001156
     281         -1.010223        1.000000        0.00006153        0.00000698        0.00000323
     282         -1.009666        1.000000        0.00000050        0.00000003        0.00000003
     283         -1.007726        1.000000        0.00037660        0.00000598        0.00000084
     284         -1.007300        1.000000        0.00144738        0.00002516        0.00000921
     285         -1.006916        1.000000        0.00008304        0.00000073        0.00000022
     286         -0.889442        1.000000        0.00000000        0.00000000        0.00000000
     287         -0.869424        1.000000        0.00000000        0.00000000        0.00000000
     288         -0.867225        1.000000        0.00000000        0.00000000        0.00000000
     289         -0.864755        1.000000        0.00000000        0.00000000        0.00000000
     290         -0.860947        1.000000        0.00000000        0.00000000        0.00000000
     291         -0.846899        1.000000        0.00000000        0.00000000        0.00000000
     292         -0.844423        1.000000        0.00000000        0.00000000        0.00000000
     293         -0.843782        1.000000        0.00000000        0.00000000        0.00000000
     294         -0.840445        1.000000        0.00000000        0.00000000        0.00000000
     295         -0.821748        1.000000        0.00000000        0.00000000        0.00000000
     296         -0.818927        1.000000        0.00000000        0.00000000        0.00000000
     297         -0.814033        1.000000        0.00000000        0.00000000        0.00000000
     298         -0.808071        1.000000        0.00000000        0.00000000        0.00000000
     299         -0.807076        1.000000        0.00000000        0.00000000        0.00000000
     300         -0.806003        1.000000        0.00000000        0.00000000        0.00000000
     301         -0.805433        1.000000        0.00000000        0.00000000        0.00000000
     302         -0.803208        1.000000        0.00000000        0.00000000        0.00000000
     303         -0.802271        1.000000        0.00000000        0.00000000        0.00000000
     304         -0.801014        1.000000        0.00000000        0.00000000        0.00000000
     305         -0.800419        1.000000        0.00000000        0.00000000        0.00000000
     306         -0.800163        1.000000        0.00000000        0.00000000        0.00000000
     307         -0.798966        1.000000        0.00000000        0.00000000        0.00000000