# Projected DOS for list 62 of 1 atoms, at iteration step i = 0, E(Fermi) =    -0.245567 a.u.
#     MO Eigenvalue [a.u.]      Occupation                 s                 p                 d
       1         -3.122063        1.000000        0.00000000        0.00000000        0.00000000
       2         -3.121278        1.000000        0.00000000        0.00000000        0.00000000
       3         -3.121021        1.000000        0.00000000        0.00000000        0.00000000
       4         -3.120578        1.000000        0.00000000        0.00000000        0.00000000
       5         -3.120271        1.000000        0.00000000        0.00000000        0.00000000
       6         -3.119857        1.000000        0.00000000        0.00000000        0.00000000
       7         -3.119652        1.000000        0.00000000        0.00000000        0.00000000
       8         -3.119624        1.000000        0.00000000        0.00000000        0.00000000
       9         -3.119219        1.000000        0.00000000        0.00000000        0.00000000
      10         -3.119023        1.000000        0.00000000        0.00000000        0.00000000
      11         -3.118913        1.000000        0.00000000        0.00000000        0.00000000
      12         -3.118874        1.000000        0.00000000        0.00000000        0.00000000
      13         -3.118317        1.000000        0.00000000        0.00000000        0.00000000
      14         -3.118249        1.000000        0.00000000        0.00000000        0.00000000
      15         -3.117895        1.000000        0.00000000        0.00000000        0.00000000
      16         -3.117383        1.000000        0.00000000        0.00000000        0.00000000
      17         -3.117165        1.000000        0.00000000        0.00000000        0.00000000
      18         -3.116815        1.000000        0.00000000        0.00000000        0.00000000
      19         -3.116436        1.000000        0.00000000        0.00000000        0.00000000
      20         -3.116021        1.000000        0.00000000        0.00000000        0.00000000
      21         -3.115852        1.000000        0.00000000        0.00000000        0.00000000
      22         -3.115668        1.000000        0.00000000        0.00000000        0.00000000
      23         -3.115368        1.000000        0.00000000        0.00000000        0.00000000
      24         -3.115339        1.000000        0.00000000        0.00000000        0.00000000
      25         -3.115041        1.000000        0.00000000        0.00000000        0.00000000
      26         -3.114366        1.000000        0.00000000        0.00000000        0.00000000
      27         -3.113951        1.000000        0.00000000        0.00000000        0.00000000
      28         -3.113764        1.000000        0.00000000        0.00000000        0.00000000
      29         -3.112534        1.000000        0.00000000        0.00000000        0.00000000
      30         -3.111679        1.000000        0.00000000        0.00000000        0.00000000
      31         -1.784233        1.000000        0.00000000        0.00000000        0.00000000
      32         -1.782870        1.000000        0.00000000        0.00000000        0.00000000
      33         -1.782324        1.000000        0.00000000        0.00000000        0.00000000
      34         -1.782130        1.000000        0.00000000        0.00000000        0.00000000
      35         -1.781736        1.000000        0.00000000        0.00000000        0.00000000
      36         -1.781230        1.000000        0.00000000        0.00000000        0.00000000
      37         -1.780847        1.000000        0.00000000        0.00000000        0.00000000
      38         -1.780487        1.000000        0.00000000        0.00000000        0.00000000
      39         -1.780184        1.000000        0.00000000        0.00000000        0.00000000
      40         -1.779550        1.000000        0.00000000        0.00000000        0.00000000
      41         -1.779259        1.000000        0.00000000        0.00000000        0.00000000
      42         -1.778921        1.000000        0.00000000        0.00000000        0.00000000
      43         -1.778390        1.000000        0.00000000        0.00000000        0.00000000
      44         -1.778140        1.000000        0.00000000        0.00000000        0.00000000
      45         -1.777912        1.000000        0.00000000        0.00000000        0.00000000
      46         -1.777514        1.000000        0.00000000        0.00000000        0.00000000
      47         -1.777362        1.000000        0.00000000        0.00000000        0.00000000
      48         -1.776787        1.000000        0.00000000        0.00000000        0.00000000
      49         -1.776537        1.000000        0.00000000        0.00000000        0.00000000
      50         -1.776457        1.000000        0.00000000        0.00000000        0.00000000
      51         -1.776029        1.000000        0.00000000        0.00000000        0.00000000
      52         -1.774038        1.000000        0.00000000        0.00000000        0.00000000
      53         -1.773797        1.000000        0.00000000        0.00000000        0.00000000
      54         -1.773665        1.000000        0.00000000        0.00000000        0.00000000
      55         -1.772725        1.000000        0.00000000        0.00000000        0.00000000
      56         -1.772546        1.000000        0.00000000        0.00000000        0.00000000
      57         -1.772041        1.000000        0.00000000        0.00000000        0.00000000
      58         -1.771662        1.000000        0.00000000        0.00000000        0.00000000
      59         -1.771364        1.000000        0.00000000        0.00000000        0.00000000
      60         -1.770813        1.000000        0.00000000        0.00000000        0.00000000
      61         -1.770640        1.000000        0.00000000        0.00000000        0.00000000
      62         -1.770449        1.000000        0.00000000        0.00000000        0.00000000
      63         -1.770188        1.000000        0.00000000        0.00000000        0.00000000
      64         -1.770126        1.000000        0.00000000        0.00000000        0.00000000
      65         -1.769991        1.000000        0.00000000        0.00000000        0.00000000
      66         -1.769845        1.000000        0.00000000        0.00000000        0.00000000
      67         -1.769763        1.000000        0.00000000        0.00000000        0.00000000
      68         -1.769661        1.000000        0.00000000        0.00000000        0.00000000
      69         -1.769465        1.000000        0.00000000        0.00000000        0.00000000
      70         -1.769351        1.000000        0.00000000        0.00000000        0.00000000
      71         -1.769328        1.000000        0.00000000        0.00000000        0.00000000
      72         -1.769216        1.000000        0.00000000        0.00000000        0.00000000
      73         -1.769129        1.000000        0.00000000        0.00000000        0.00000000
      74         -1.769070        1.000000        0.00000000        0.00000000        0.00000000
      75         -1.768941        1.000000        0.00000000        0.00000000        0.00000000
      76         -1.768822        1.000000        0.00000000        0.00000000        0.00000000
      77         -1.768707        1.000000        0.00000000        0.00000000        0.00000000
      78         -1.768585        1.000000        0.00000000        0.00000000        0.00000000
      79         -1.768439        1.000000        0.00000000        0.00000000        0.00000000
      80         -1.768329        1.000000        0.00000000        0.00000000        0.00000000
      81         -1.768089        1.000000        0.00000000        0.00000000        0.00000000
      82         -1.767883        1.000000        0.00000000        0.00000000        0.00000000
      83         -1.767662        1.000000        0.00000000        0.00000000        0.00000000
      84         -1.767495        1.000000        0.00000000        0.00000000        0.00000000
      85         -1.767311        1.000000        0.00000000        0.00000000        0.00000000
      86         -1.767266        1.000000        0.00000000        0.00000000        0.00000000
      87         -1.767060        1.000000        0.00000000        0.00000000        0.00000000
      88         -1.767025        1.000000        0.00000000        0.00000000        0.00000000
      89         -1.766872        1.000000        0.00000000        0.00000000        0.00000000
      90         -1.766524        1.000000        0.00000000        0.00000000        0.00000000
      91         -1.766405        1.000000        0.00000000        0.00000000        0.00000000
      92         -1.766254        1.000000        0.00000000        0.00000000        0.00000000
      93         -1.766123        1.000000        0.00000000        0.00000000        0.00000000
      94         -1.765857        1.000000        0.00000000        0.00000000        0.00000000
      95         -1.765515        1.000000        0.00000000        0.00000000        0.00000000
      96         -1.765181        1.000000        0.00000000        0.00000000        0.00000000
      97         -1.765105        1.000000        0.00000000        0.00000000        0.00000000
      98         -1.764967        1.000000        0.00000000        0.00000000        0.00000000
      99         -1.764710        1.000000        0.00000000        0.00000000        0.00000000
     100         -1.764440        1.000000        0.00000000        0.00000000        0.00000000
     101         -1.764248        1.000000        0.00000000        0.00000000        0.00000000
     102         -1.763945        1.000000        0.00000000        0.00000000        0.00000000
     103         -1.763804        1.000000        0.00000000        0.00000000        0.00000000
     104         -1.763351        1.000000        0.00000000        0.00000000        0.00000000
     105         -1.763205        1.000000        0.00000000        0.00000000        0.00000000
     106         -1.763107        1.000000        0.00000000        0.00000000        0.00000000
     107         -1.762531        1.000000        0.00000000        0.00000000        0.00000000
     108         -1.762343        1.000000        0.00000000        0.00000000        0.00000000
     109         -1.761453        1.000000        0.00000000        0.00000000        0.00000000
     110         -1.760969        1.000000        0.00000000        0.00000000        0.00000000
     111         -1.760481        1.000000        0.00000000        0.00000000        0.00000000
     112         -1.760009        1.000000        0.00000000        0.00000000        0.00000000
     113         -1.759531        1.000000        0.00000000        0.00000000        0.00000000
     114         -1.759105        1.000000        0.00000000        0.00000000        0.00000000
     115         -1.758777        1.000000        0.00000000        0.00000000        0.00000000
     116         -1.757462        1.000000        0.00000000        0.00000000        0.00000000
     117         -1.756221        1.000000        0.00000000        0.00000000        0.00000000
     118         -1.755333        1.000000        0.00000000        0.00000000        0.00000000
     119         -1.754385        1.000000        0.00000000        0.00000000        0.00000000
     120         -1.752742        1.000000        0.00000000        0.00000000        0.00000000
     121         -1.131181        1.000000        0.00033085        0.00003832        0.00000234
     122         -1.128658        1.000000        0.00004214        0.00008754        0.00001064
     123         -1.128000        1.000000        0.00023810        0.00006357        0.00001564
     124         -1.126427        1.000000        0.00103163        0.00031139        0.00008850
     125         -1.120469        1.000000        0.00437144        0.00131342        0.00020852
     126         -1.119202        1.000000        0.00074474        0.00074725        0.00014063
     127         -1.117081        1.000000        0.00003337        0.00040465        0.00007626
     128         -1.116156        1.000000        0.00058004        0.00011841        0.00001892
     129         -1.115054        1.000000        0.00136806        0.00156247        0.00024456
     130         -1.111818        1.000000        0.00166104        0.00039680        0.00009941
     131         -1.111610        1.000000        0.00725823        0.00112474        0.00019776
     132         -1.110976        1.000000        0.00183543        0.00209180        0.00044984
     133         -1.109888        1.000000        0.00005889        0.00069163        0.00013352
     134         -1.108601        1.000000        0.00022468        0.00016226        0.00003802
     135         -1.108036        1.000000        0.00842044        0.00113131        0.00039985
     136         -1.107349        1.000000        0.00170578        0.00147454        0.00039829
     137         -1.106797        1.000000        0.01295800        0.00146546        0.00058264
     138         -1.106077        1.000000        0.02328137        0.00479913        0.00192862
     139         -1.104162        1.000000        0.01199750        0.00454482        0.00157507
     140         -1.102892        1.000000        0.00460114        0.00366252        0.00112574
     141         -1.102196        1.000000        0.00467094        0.00183725        0.00046222
     142         -1.101581        1.000000        0.00014809        0.00301807        0.00087017
     143         -1.101215        1.000000        0.00920684        0.00941494        0.00363039
     144         -1.099602        1.000000        0.00007132        0.00054009        0.00012716
     145         -1.098107        1.000000        0.00199960        0.00018163        0.00007910
     146         -1.097450        1.000000        0.00013679        0.00107510        0.00023900
     147         -1.097046        1.000000        0.00022514        0.00125066        0.00030307
     148         -1.095795        1.000000        0.00005748        0.00175117        0.00054872
     149         -1.095192        1.000000        0.00052760        0.00258798        0.00070813
     150         -1.093515        1.000000        0.00107556        0.00423961        0.00143139
     151         -1.093123        1.000000        0.00001986        0.00175778        0.00055134
     152         -1.092614        1.000000        0.00078759        0.00342126        0.00097484
     153         -1.091821        1.000000        0.00035792        0.00144786        0.00046118
     154         -1.090761        1.000000        0.00061050        0.00293485        0.00095195
     155         -1.090597        1.000000        0.00045669        0.00185328        0.00060068
     156         -1.089544        1.000000        0.00000555        0.00146996        0.00042111
     157         -1.088154        1.000000        0.00053706        0.00246512        0.00112502
     158         -1.086960        1.000000        0.00089264        0.00289646        0.00081688
     159         -1.086718        1.000000        0.00015687        0.01599997        0.00643353
     160         -1.085525        1.000000        0.00002238        0.00059820        0.00020278
     161         -1.084219        1.000000        0.00088171        0.00260307        0.00083884
     162         -1.082734        1.000000        0.00011668        0.00732335        0.00236675
     163         -1.082381        1.000000        0.00008822        0.00037980        0.00013891
     164         -1.080807        1.000000        0.00187863        0.00286300        0.00134972
     165         -1.080293        1.000000        0.00060065        0.00158666        0.00048842
     166         -1.079453        1.000000        0.00047365        0.00284882        0.00073274
     167         -1.078246        1.000000        0.00028011        0.00330888        0.00101576
     168         -1.077774        1.000000        0.00071887        0.00409548        0.00175067
     169         -1.077143        1.000000        0.00000999        0.00148055        0.00047231
     170         -1.076426        1.000000        0.00006411        0.00178982        0.00064766
     171         -1.076145        1.000000        0.00118204        0.00258125        0.00125811
     172         -1.074526        1.000000        0.00002806        0.00027379        0.00009644
     173         -1.074368        1.000000        0.00036660        0.00061640        0.00018670
     174         -1.073652        1.000000        0.00000247        0.00033976        0.00014509
     175         -1.072808        1.000000        0.00083055        0.00062041        0.00018151
     176         -1.072152        1.000000        0.00016534        0.00060621        0.00020062
     177         -1.071192        1.000000        0.00047281        0.00079788        0.00025163
     178         -1.070444        1.000000        0.00060296        0.00014593        0.00008032
     179         -1.070141        1.000000        0.00015042        0.00135988        0.00041240
     180         -1.069416        1.000000        0.00112123        0.00344303        0.00120533
     181         -1.069179        1.000000        0.00035903        0.00070220        0.00023486
     182         -1.067610        1.000000        0.00150187        0.00015094        0.00005133
     183         -1.066240        1.000000        0.00002579        0.00014192        0.00001794
     184         -1.065124        1.000000        0.00099573        0.00046668        0.00013269
     185         -1.064565        1.000000        0.00001881        0.00156688        0.00063204
     186         -1.063575        1.000000        0.00010029        0.00220104        0.00086437
     187         -1.062901        1.000000        0.00175526        0.00178909        0.00060965
     188         -1.062274        1.000000        0.00422211        0.00442540        0.00159858
     189         -1.061481        1.000000        0.00000014        0.00063551        0.00024291
     190         -1.061312        1.000000        0.00002818        0.00121389        0.00038916
     191         -1.060592        1.000000        0.00057692        0.00061145        0.00013767
     192         -1.059297        1.000000        0.00028983        0.00200177        0.00083356
     193         -1.058643        1.000000        0.00190270        0.00330937        0.00104810
     194         -1.058262        1.000000        0.00018923        0.00210964        0.00076925
     195         -1.057127        1.000000        0.00168366        0.00892266        0.00358657
     196         -1.056224        1.000000        0.00037598        0.00195920        0.00079587
     197         -1.056050        1.000000        0.00123508        0.00843103        0.00342335
     198         -1.054881        1.000000        0.00010711        0.00148228        0.00054284
     199         -1.054669        1.000000        0.00051742        0.00276778        0.00120672
     200         -1.053605        1.000000        0.00004565        0.00112071        0.00048248
     201         -1.053457        1.000000        0.00014209        0.00666559        0.00252191
     202         -1.052589        1.000000        0.00010868        0.00284759        0.00105825
     203         -1.052089        1.000000        0.00056054        0.00301066        0.00101981
     204         -1.051299        1.000000        0.00006618        0.00177364        0.00084773
     205         -1.050676        1.000000        0.00018198        0.00037028        0.00009513
     206         -1.050307        1.000000        0.00006948        0.00240254        0.00111393
     207         -1.049921        1.000000        0.00016795        0.00320056        0.00131696
     208         -1.049485        1.000000        0.00003979        0.00041296        0.00015526
     209         -1.049126        1.000000        0.00010771        0.00448579        0.00207106
     210         -1.048445        1.000000        0.00011007        0.00217883        0.00118820
     211         -1.048201        1.000000        0.00007051        0.00112948        0.00053361
     212         -1.047911        1.000000        0.00010043        0.00006391        0.00001247
     213         -1.047620        1.000000        0.00024270        0.00159174        0.00079870
     214         -1.046931        1.000000        0.00010084        0.00084171        0.00033341
     215         -1.046733        1.000000        0.00035092        0.00103664        0.00044685
     216         -1.046634        1.000000        0.00027469        0.00089016        0.00047751
     217         -1.045930        1.000000        0.00046304        0.00110523        0.00020562
     218         -1.045069        1.000000        0.00004372        0.00033737        0.00017805
     219         -1.044350        1.000000        0.00035779        0.00028581        0.00016145
     220         -1.043623        1.000000        0.00001602        0.00117645        0.00056719
     221         -1.043421        1.000000        0.00001407        0.00024378        0.00007902
     222         -1.042778        1.000000        0.00007148        0.00084791        0.00030734
     223         -1.042701        1.000000        0.00000727        0.00362283        0.00151398
     224         -1.042424        1.000000        0.00000902        0.00073760        0.00041637
     225         -1.041682        1.000000        0.00003238        0.00422702        0.00203362
     226         -1.041498        1.000000        0.00000051        0.00034717        0.00014700
     227         -1.040837        1.000000        0.00016097        0.00646890        0.00313297
     228         -1.040496        1.000000        0.00002249        0.00787232        0.00377316
     229         -1.040151        1.000000        0.00024354        0.01216455        0.00579298
     230         -1.039686        1.000000        0.00027975        0.00770777        0.00346840
     231         -1.038961        1.000000        0.00031588        0.00500864        0.00212449
     232         -1.038553        1.000000        0.00004617        0.00129105        0.00052369
     233         -1.038476        1.000000        0.00010188        0.00143383        0.00069736
     234         -1.038152        1.000000        0.00005999        0.00376518        0.00123195
     235         -1.038041        1.000000        0.00002002        0.00310376        0.00113626
     236         -1.036855        1.000000        0.00008885        0.00369209        0.00130309
     237         -1.036488        1.000000        0.00003684        0.00072542        0.00026709
     238         -1.036186        1.000000        0.00008066        0.00270277        0.00096286
     239         -1.036068        1.000000        0.00000025        0.00056952        0.00025477
     240         -1.035757        1.000000        0.00000152        0.00005181        0.00002815
     241         -1.035291        1.000000        0.00003154        0.00109520        0.00045964
     242         -1.035048        1.000000        0.00031562        0.01172991        0.00429721
     243         -1.035000        1.000000        0.00034296        0.00658331        0.00253759
     244         -1.034454        1.000000        0.00113086        0.02868923        0.01137901
     245         -1.034219        1.000000        0.00026003        0.00639052        0.00260821
     246         -1.033874        1.000000        0.00040585        0.01201820        0.00495349
     247         -1.033507        1.000000        0.00001322        0.00047704        0.00020153
     248         -1.033219        1.000000        0.00031759        0.01132838        0.00494454
     249         -1.033056        1.000000        0.00005402        0.00157297        0.00062918
     250         -1.032307        1.000000        0.00009408        0.00615000        0.00293103
     251         -1.031324        1.000000        0.00000427        0.00041651        0.00017132
     252         -1.031144        1.000000        0.00001496        0.00143084        0.00059365
     253         -1.030643        1.000000        0.00000002        0.00093246        0.00050377
     254         -1.030284        1.000000        0.00000251        0.00014729        0.00005647
     255         -1.030062        1.000000        0.00000436        0.00084855        0.00040120
     256         -1.029818        1.000000        0.00000034        0.00019637        0.00010758
     257         -1.028552        1.000000        0.00000030        0.00009415        0.00003608
     258         -1.027578        1.000000        0.00000031        0.00011210        0.00005100
     259         -1.027121        1.000000        0.00000160        0.00013113        0.00006422
     260         -1.026880        1.000000        0.00000186        0.00020603        0.00008801
     261         -1.026226        1.000000        0.00000195        0.00021987        0.00008722
     262         -1.025765        1.000000        0.00000186        0.00013094        0.00004484
     263         -1.025299        1.000000        0.00005447        0.00134546        0.00045239
     264         -1.025158        1.000000        0.00000180        0.00004338        0.00002651
     265         -1.025007        1.000000        0.00000058        0.00001750        0.00001137
     266         -1.024422        1.000000        0.00000316        0.00022660        0.00010146
     267         -1.023793        1.000000        0.00018485        0.01042379        0.00486842
     268         -1.023594        1.000000        0.00000468        0.00016127        0.00007564
     269         -1.023069        1.000000        0.00025692        0.02160634        0.00980004
     270         -1.022603        1.000000        0.00094803        0.06339981        0.02868200
     271         -1.022074        1.000000        0.00000137        0.00004675        0.00002191
     272         -1.021695        1.000000        0.00000546        0.00077944        0.00036208
     273         -1.021372        1.000000        0.00000962        0.00083980        0.00034850
     274         -1.021076        1.000000        0.00000002        0.00000507        0.00000267
     275         -1.019492        1.000000        0.00000297        0.00012184        0.00005387
     276         -1.018003        1.000000        0.00000208        0.00011805        0.00005227
     277         -1.016408        1.000000        0.00000180        0.00005143        0.00002125
     278         -1.016278        1.000000        0.00000633        0.00018088        0.00009034
     279         -1.015338        1.000000        0.00000005        0.00000525        0.00000300
     280         -1.013851        1.000000        0.00006205        0.00133966        0.00068348
     281         -1.010223        1.000000        0.00000005        0.00000027        0.00000009
     282         -1.009666        1.000000        0.00001223        0.00058804        0.00026059
     283         -1.007726        1.000000        0.00000018        0.00000594        0.00000243
     284         -1.007300        1.000000        0.00000391        0.00002577        0.00000934
     285         -1.006916        1.000000        0.00020879        0.00477156        0.00222619
     286         -0.889442        1.000000        0.00000000        0.00000000        0.00000000
     287         -0.869424        1.000000        0.00000000        0.00000000        0.00000000
     288         -0.867225        1.000000        0.00000000        0.00000000        0.00000000
     289         -0.864755        1.000000        0.00000000        0.00000000        0.00000000
     290         -0.860947        1.000000        0.00000000        0.00000000        0.00000000
     291         -0.846899        1.000000        0.00000000        0.00000000        0.00000000
     292         -0.844423        1.000000        0.00000000        0.00000000        0.00000000
     293         -0.843782        1.000000        0.00000000        0.00000000        0.00000000
     294         -0.840445        1.000000        0.00000000        0.00000000        0.00000000
     295         -0.821748        1.000000        0.00000000        0.00000000        0.00000000
     296         -0.818927        1.000000        0.00000000        0.00000000        0.00000000
     297         -0.814033        1.000000        0.00000000        0.00000000        0.00000000
     298         -0.808071        1.000000        0.00000000        0.00000000        0.00000000
     299         -0.807076        1.000000        0.00000000        0.00000000        0.00000000
     300         -0.806003        1.000000        0.00000000        0.00000000        0.00000000
     301         -0.805433        1.000000        0.00000000        0.00000000        0.00000000
     302         -0.803208        1.000000        0.00000000        0.00000000        0.00000000
     303         -0.802271        1.000000        0.00000000        0.00000000        0.00000000
     304         -0.801014        1.000000        0.00000000        0.00000000        0.00000000
     305         -0.800419        1.000000        0.00000000        0.00000000        0.00000000
     306         -0.800163        1.000000        0.00000000        0.00000000        0.00000000
     307         -0.798966        1.000000        0.00000000        0.00000000        0.00000000