# Projected DOS for list 230 of 1 atoms, at iteration step i = 0, E(Fermi) =    -0.245567 a.u.
#     MO Eigenvalue [a.u.]      Occupation                 s                 p
       1         -3.122063        1.000000        0.00000000        0.00000000
       2         -3.121278        1.000000        0.00000000        0.00000000
       3         -3.121021        1.000000        0.00000000        0.00000000
       4         -3.120578        1.000000        0.00000000        0.00000000
       5         -3.120271        1.000000        0.00000000        0.00000000
       6         -3.119857        1.000000        0.00000000        0.00000000
       7         -3.119652        1.000000        0.00000000        0.00000000
       8         -3.119624        1.000000        0.00000000        0.00000000
       9         -3.119219        1.000000        0.00000000        0.00000000
      10         -3.119023        1.000000        0.00000000        0.00000000
      11         -3.118913        1.000000        0.00000000        0.00000000
      12         -3.118874        1.000000        0.00000000        0.00000000
      13         -3.118317        1.000000        0.00000000        0.00000000
      14         -3.118249        1.000000        0.00000000        0.00000000
      15         -3.117895        1.000000        0.00000000        0.00000000
      16         -3.117383        1.000000        0.00000000        0.00000000
      17         -3.117165        1.000000        0.00000000        0.00000000
      18         -3.116815        1.000000        0.00000000        0.00000000
      19         -3.116436        1.000000        0.00000000        0.00000000
      20         -3.116021        1.000000        0.00000000        0.00000000
      21         -3.115852        1.000000        0.00000000        0.00000000
      22         -3.115668        1.000000        0.00000000        0.00000000
      23         -3.115368        1.000000        0.00000000        0.00000000
      24         -3.115339        1.000000        0.00000000        0.00000000
      25         -3.115041        1.000000        0.00000000        0.00000000
      26         -3.114366        1.000000        0.00000000        0.00000000
      27         -3.113951        1.000000        0.00000000        0.00000000
      28         -3.113764        1.000000        0.00000000        0.00000000
      29         -3.112534        1.000000        0.00000000        0.00000000
      30         -3.111679        1.000000        0.00000000        0.00000000
      31         -1.784233        1.000000        0.00000000        0.00000000
      32         -1.782870        1.000000        0.00000000        0.00000000
      33         -1.782324        1.000000        0.00000000        0.00000000
      34         -1.782130        1.000000        0.00000000        0.00000000
      35         -1.781736        1.000000        0.00000000        0.00000000
      36         -1.781230        1.000000        0.00000000        0.00000000
      37         -1.780847        1.000000        0.00000000        0.00000000
      38         -1.780487        1.000000        0.00000000        0.00000000
      39         -1.780184        1.000000        0.00000000        0.00000000
      40         -1.779550        1.000000        0.00000000        0.00000000
      41         -1.779259        1.000000        0.00000000        0.00000000
      42         -1.778921        1.000000        0.00000000        0.00000000
      43         -1.778390        1.000000        0.00000000        0.00000000
      44         -1.778140        1.000000        0.00000000        0.00000000
      45         -1.777912        1.000000        0.00000000        0.00000000
      46         -1.777514        1.000000        0.00000000        0.00000000
      47         -1.777362        1.000000        0.00000000        0.00000000
      48         -1.776787        1.000000        0.00000000        0.00000000
      49         -1.776537        1.000000        0.00000000        0.00000000
      50         -1.776457        1.000000        0.00000000        0.00000000
      51         -1.776029        1.000000        0.00000000        0.00000000
      52         -1.774038        1.000000        0.00000000        0.00000000
      53         -1.773797        1.000000        0.00000000        0.00000000
      54         -1.773665        1.000000        0.00000000        0.00000000
      55         -1.772725        1.000000        0.00000000        0.00000000
      56         -1.772546        1.000000        0.00000000        0.00000000
      57         -1.772041        1.000000        0.00000000        0.00000000
      58         -1.771662        1.000000        0.00000000        0.00000000
      59         -1.771364        1.000000        0.00000000        0.00000000
      60         -1.770813        1.000000        0.00000000        0.00000000
      61         -1.770640        1.000000        0.00000000        0.00000000
      62         -1.770449        1.000000        0.00000000        0.00000000
      63         -1.770188        1.000000        0.00000000        0.00000000
      64         -1.770126        1.000000        0.00000000        0.00000000
      65         -1.769991        1.000000        0.00000000        0.00000000
      66         -1.769845        1.000000        0.00000000        0.00000000
      67         -1.769763        1.000000        0.00000000        0.00000000
      68         -1.769661        1.000000        0.00000000        0.00000000
      69         -1.769465        1.000000        0.00000000        0.00000000
      70         -1.769351        1.000000        0.00000000        0.00000000
      71         -1.769328        1.000000        0.00000000        0.00000000
      72         -1.769216        1.000000        0.00000000        0.00000000
      73         -1.769129        1.000000        0.00000000        0.00000000
      74         -1.769070        1.000000        0.00000000        0.00000000
      75         -1.768941        1.000000        0.00000000        0.00000000
      76         -1.768822        1.000000        0.00000000        0.00000000
      77         -1.768707        1.000000        0.00000000        0.00000000
      78         -1.768585        1.000000        0.00000000        0.00000000
      79         -1.768439        1.000000        0.00000000        0.00000000
      80         -1.768329        1.000000        0.00000000        0.00000000
      81         -1.768089        1.000000        0.00000000        0.00000000
      82         -1.767883        1.000000        0.00000000        0.00000000
      83         -1.767662        1.000000        0.00000000        0.00000000
      84         -1.767495        1.000000        0.00000000        0.00000000
      85         -1.767311        1.000000        0.00000000        0.00000000
      86         -1.767266        1.000000        0.00000000        0.00000000
      87         -1.767060        1.000000        0.00000000        0.00000000
      88         -1.767025        1.000000        0.00000000        0.00000000
      89         -1.766872        1.000000        0.00000000        0.00000000
      90         -1.766524        1.000000        0.00000000        0.00000000
      91         -1.766405        1.000000        0.00000000        0.00000000
      92         -1.766254        1.000000        0.00000000        0.00000000
      93         -1.766123        1.000000        0.00000000        0.00000000
      94         -1.765857        1.000000        0.00000000        0.00000000
      95         -1.765515        1.000000        0.00000000        0.00000000
      96         -1.765181        1.000000        0.00000000        0.00000000
      97         -1.765105        1.000000        0.00000000        0.00000000
      98         -1.764967        1.000000        0.00000000        0.00000000
      99         -1.764710        1.000000        0.00000000        0.00000000
     100         -1.764440        1.000000        0.00000000        0.00000000
     101         -1.764248        1.000000        0.00000000        0.00000000
     102         -1.763945        1.000000        0.00000000        0.00000000
     103         -1.763804        1.000000        0.00000000        0.00000000
     104         -1.763351        1.000000        0.00000000        0.00000000
     105         -1.763205        1.000000        0.00000000        0.00000000
     106         -1.763107        1.000000        0.00000000        0.00000000
     107         -1.762531        1.000000        0.00000000        0.00000000
     108         -1.762343        1.000000        0.00000000        0.00000000
     109         -1.761453        1.000000        0.00000000        0.00000000
     110         -1.760969        1.000000        0.00000000        0.00000000
     111         -1.760481        1.000000        0.00000000        0.00000000
     112         -1.760009        1.000000        0.00000000        0.00000000
     113         -1.759531        1.000000        0.00000000        0.00000000
     114         -1.759105        1.000000        0.00000000        0.00000000
     115         -1.758777        1.000000        0.00000000        0.00000000
     116         -1.757462        1.000000        0.00000000        0.00000000
     117         -1.756221        1.000000        0.00000000        0.00000000
     118         -1.755333        1.000000        0.00000000        0.00000000
     119         -1.754385        1.000000        0.00000000        0.00000000
     120         -1.752742        1.000000        0.00000000        0.00000000
     121         -1.131181        1.000000        0.00010151        0.00011596
     122         -1.128658        1.000000        0.00011703        0.00013100
     123         -1.128000        1.000000        0.00035127        0.00036985
     124         -1.126427        1.000000        0.00005292        0.00007102
     125         -1.120469        1.000000        0.00016819        0.00021079
     126         -1.119202        1.000000        0.00008768        0.00010948
     127         -1.117081        1.000000        0.00008774        0.00006548
     128         -1.116156        1.000000        0.00022734        0.00017604
     129         -1.115054        1.000000        0.00004082        0.00003583
     130         -1.111818        1.000000        0.00162220        0.00109338
     131         -1.111610        1.000000        0.00021591        0.00016830
     132         -1.110976        1.000000        0.00396649        0.00247191
     133         -1.109888        1.000000        0.00043417        0.00065585
     134         -1.108601        1.000000        0.00012992        0.00012867
     135         -1.108036        1.000000        0.00011782        0.00006179
     136         -1.107349        1.000000        0.00005796        0.00007977
     137         -1.106797        1.000000        0.00136042        0.00110350
     138         -1.106077        1.000000        0.00378326        0.00318954
     139         -1.104162        1.000000        0.00128472        0.00097663
     140         -1.102892        1.000000        0.00016090        0.00005750
     141         -1.102196        1.000000        0.00013997        0.00007202
     142         -1.101581        1.000000        0.00050337        0.00024153
     143         -1.101215        1.000000        0.00010399        0.00005304
     144         -1.099602        1.000000        0.00003819        0.00002431
     145         -1.098107        1.000000        0.00002621        0.00001786
     146         -1.097450        1.000000        0.00154578        0.00123321
     147         -1.097046        1.000000        0.00001843        0.00001481
     148         -1.095795        1.000000        0.00484677        0.00332829
     149         -1.095192        1.000000        0.00143142        0.00133385
     150         -1.093515        1.000000        0.00000426        0.00000775
     151         -1.093123        1.000000        0.00005123        0.00001452
     152         -1.092614        1.000000        0.00013605        0.00009840
     153         -1.091821        1.000000        0.00042426        0.00031000
     154         -1.090761        1.000000        0.00014608        0.00008109
     155         -1.090597        1.000000        0.00006464        0.00002577
     156         -1.089544        1.000000        0.00003227        0.00004013
     157         -1.088154        1.000000        0.00101304        0.00066858
     158         -1.086960        1.000000        0.00062557        0.00053080
     159         -1.086718        1.000000        0.00052448        0.00038315
     160         -1.085525        1.000000        0.00001082        0.00001157
     161         -1.084219        1.000000        0.00427505        0.00218487
     162         -1.082734        1.000000        0.00111556        0.00047354
     163         -1.082381        1.000000        0.00024594        0.00013045
     164         -1.080807        1.000000        0.00670258        0.00331710
     165         -1.080293        1.000000        0.00004294        0.00003959
     166         -1.079453        1.000000        0.00072875        0.00037602
     167         -1.078246        1.000000        0.00094952        0.00049960
     168         -1.077774        1.000000        0.00008127        0.00004606
     169         -1.077143        1.000000        0.00001872        0.00001068
     170         -1.076426        1.000000        0.00007020        0.00002702
     171         -1.076145        1.000000        0.00086651        0.00047862
     172         -1.074526        1.000000        0.00092802        0.00048071
     173         -1.074368        1.000000        0.00283877        0.00143064
     174         -1.073652        1.000000        0.00257629        0.00135377
     175         -1.072808        1.000000        0.00232480        0.00119676
     176         -1.072152        1.000000        0.00046938        0.00026319
     177         -1.071192        1.000000        0.00206766        0.00107322
     178         -1.070444        1.000000        0.00010966        0.00004956
     179         -1.070141        1.000000        0.00011155        0.00005556
     180         -1.069416        1.000000        0.00003120        0.00002697
     181         -1.069179        1.000000        0.00014249        0.00006934
     182         -1.067610        1.000000        0.00003817        0.00001829
     183         -1.066240        1.000000        0.00047608        0.00024738
     184         -1.065124        1.000000        0.00125618        0.00058504
     185         -1.064565        1.000000        0.00077409        0.00041436
     186         -1.063575        1.000000        0.00060546        0.00030723
     187         -1.062901        1.000000        0.00004835        0.00004216
     188         -1.062274        1.000000        0.00010972        0.00006333
     189         -1.061481        1.000000        0.00630263        0.00281535
     190         -1.061312        1.000000        0.00062073        0.00028541
     191         -1.060592        1.000000        0.00520679        0.00233089
     192         -1.059297        1.000000        0.01035107        0.00476093
     193         -1.058643        1.000000        0.00407786        0.00190005
     194         -1.058262        1.000000        0.00003103        0.00000916
     195         -1.057127        1.000000        0.00021057        0.00010862
     196         -1.056224        1.000000        0.00058202        0.00026040
     197         -1.056050        1.000000        0.00008648        0.00004847
     198         -1.054881        1.000000        0.00058275        0.00030241
     199         -1.054669        1.000000        0.00000249        0.00000247
     200         -1.053605        1.000000        0.01719224        0.00783709
     201         -1.053457        1.000000        0.00970297        0.00448697
     202         -1.052589        1.000000        0.00004530        0.00002717
     203         -1.052089        1.000000        0.02605779        0.01150404
     204         -1.051299        1.000000        0.00520388        0.00218790
     205         -1.050676        1.000000        0.00032508        0.00014721
     206         -1.050307        1.000000        0.00470825        0.00204428
     207         -1.049921        1.000000        0.00040645        0.00017028
     208         -1.049485        1.000000        0.00084267        0.00037799
     209         -1.049126        1.000000        0.00460560        0.00200325
     210         -1.048445        1.000000        0.00005073        0.00002730
     211         -1.048201        1.000000        0.00140085        0.00059305
     212         -1.047911        1.000000        0.00509551        0.00214101
     213         -1.047620        1.000000        0.00075288        0.00034437
     214         -1.046931        1.000000        0.00014693        0.00006569
     215         -1.046733        1.000000        0.00197660        0.00081511
     216         -1.046634        1.000000        0.00001500        0.00000600
     217         -1.045930        1.000000        0.00008314        0.00003877
     218         -1.045069        1.000000        0.00015537        0.00005320
     219         -1.044350        1.000000        0.00002668        0.00001884
     220         -1.043623        1.000000        0.00002185        0.00000892
     221         -1.043421        1.000000        0.00006159        0.00002554
     222         -1.042778        1.000000        0.00024594        0.00008616
     223         -1.042701        1.000000        0.00112846        0.00045909
     224         -1.042424        1.000000        0.00107017        0.00043820
     225         -1.041682        1.000000        0.00000058        0.00000176
     226         -1.041498        1.000000        0.00001771        0.00000656
     227         -1.040837        1.000000        0.00016185        0.00007711
     228         -1.040496        1.000000        0.00005570        0.00002769
     229         -1.040151        1.000000        0.00011956        0.00004398
     230         -1.039686        1.000000        0.00000577        0.00001277
     231         -1.038961        1.000000        0.00087235        0.00038218
     232         -1.038553        1.000000        0.00003770        0.00001898
     233         -1.038476        1.000000        0.00006648        0.00002544
     234         -1.038152        1.000000        0.00002096        0.00000742
     235         -1.038041        1.000000        0.00095525        0.00040474
     236         -1.036855        1.000000        0.00013154        0.00006847
     237         -1.036488        1.000000        0.00001194        0.00000143
     238         -1.036186        1.000000        0.00000012        0.00000487
     239         -1.036068        1.000000        0.00095625        0.00037030
     240         -1.035757        1.000000        0.00001957        0.00001130
     241         -1.035291        1.000000        0.00016876        0.00007342
     242         -1.035048        1.000000        0.00003064        0.00001178
     243         -1.035000        1.000000        0.00012508        0.00004205
     244         -1.034454        1.000000        0.00000555        0.00000167
     245         -1.034219        1.000000        0.00000004        0.00000022
     246         -1.033874        1.000000        0.00024862        0.00010047
     247         -1.033507        1.000000        0.00046034        0.00020026
     248         -1.033219        1.000000        0.00000006        0.00000011
     249         -1.033056        1.000000        0.00021403        0.00010132
     250         -1.032307        1.000000        0.00000724        0.00000383
     251         -1.031324        1.000000        0.00002317        0.00000942
     252         -1.031144        1.000000        0.00007091        0.00003254
     253         -1.030643        1.000000        0.00001272        0.00000474
     254         -1.030284        1.000000        0.00000561        0.00000404
     255         -1.030062        1.000000        0.00000430        0.00000155
     256         -1.029818        1.000000        0.00000567        0.00000218
     257         -1.028552        1.000000        0.00002192        0.00001075
     258         -1.027578        1.000000        0.00000364        0.00000197
     259         -1.027121        1.000000        0.00000610        0.00000273
     260         -1.026880        1.000000        0.00001659        0.00000860
     261         -1.026226        1.000000        0.00000006        0.00000003
     262         -1.025765        1.000000        0.00000152        0.00000231
     263         -1.025299        1.000000        0.00001325        0.00000460
     264         -1.025158        1.000000        0.00000008        0.00000022
     265         -1.025007        1.000000        0.00000015        0.00000023
     266         -1.024422        1.000000        0.00000003        0.00000002
     267         -1.023793        1.000000        0.00000416        0.00000128
     268         -1.023594        1.000000        0.00000008        0.00000005
     269         -1.023069        1.000000        0.00000024        0.00000019
     270         -1.022603        1.000000        0.00000318        0.00000160
     271         -1.022074        1.000000        0.00000022        0.00000008
     272         -1.021695        1.000000        0.00000059        0.00000024
     273         -1.021372        1.000000        0.00000122        0.00000073
     274         -1.021076        1.000000        0.00000000        0.00000000
     275         -1.019492        1.000000        0.00000011        0.00000004
     276         -1.018003        1.000000        0.00000023        0.00000014
     277         -1.016408        1.000000        0.00000002        0.00000000
     278         -1.016278        1.000000        0.00000001        0.00000001
     279         -1.015338        1.000000        0.00000103        0.00000036
     280         -1.013851        1.000000        0.00000002        0.00000001
     281         -1.010223        1.000000        0.00000007        0.00000002
     282         -1.009666        1.000000        0.00000054        0.00000023
     283         -1.007726        1.000000        0.00000009        0.00000002
     284         -1.007300        1.000000        0.00000145        0.00000042
     285         -1.006916        1.000000        0.00000034        0.00000061
     286         -0.889442        1.000000        0.00000000        0.00000000
     287         -0.869424        1.000000        0.00000000        0.00000000
     288         -0.867225        1.000000        0.00000000        0.00000000
     289         -0.864755        1.000000        0.00000000        0.00000000
     290         -0.860947        1.000000        0.00000000        0.00000000
     291         -0.846899        1.000000        0.00000000        0.00000000
     292         -0.844423        1.000000        0.00000000        0.00000000
     293         -0.843782        1.000000        0.00000000        0.00000000
     294         -0.840445        1.000000        0.00000000        0.00000000
     295         -0.821748        1.000000        0.00000000        0.00000000
     296         -0.818927        1.000000        0.00000000        0.00000000
     297         -0.814033        1.000000        0.00000000        0.00000000
     298         -0.808071        1.000000        0.00000000        0.00000000
     299         -0.807076        1.000000        0.00000000        0.00000000
     300         -0.806003        1.000000        0.00000000        0.00000000
     301         -0.805433        1.000000        0.00000000        0.00000000
     302         -0.803208        1.000000        0.00000000        0.00000000
     303         -0.802271        1.000000        0.00000000        0.00000000
     304         -0.801014        1.000000        0.00000000        0.00000000
     305         -0.800419        1.000000        0.00000000        0.00000000
     306         -0.800163        1.000000        0.00000000        0.00000000
     307         -0.798966        1.000000        0.00000000        0.00000000
     308         -0.796270        1.000000        0.00000000        0.00000000
     309         -0.795746        1.000000        0.00000000        0.00000000
     310         -0.794333        1.000000        0.00000000        0.00000000
     311         -0.792293        1.000000        0.00000000        0.00000000
     312         -0.791548        1.000000        0.00000000        0.00000000
     313         -0.790603        1.000000        0.00000000        0.00000000
     314         -0.790424        1.000000        0.00000000        0.00000000
     315         -0.789930        1.000000        0.00000000        0.00000000
     316         -0.788450        1.000000        0.00000000        0.00000000
     317         -0.787526        1.000000        0.00000000        0.00000000
     318         -0.786788        1.000000        0.00000000        0.00000000
     319         -0.781836        1.000000        0.00000000        0.00000000
     320         -0.780998        1.000000        0.00000000        0.00000000
     321         -0.780477        1.000000        0.00000000        0.00000000
     322         -0.779060        1.000000        0.00000000        0.00000000
     323         -0.778943        1.000000        0.00000000        0.00000000
     324         -0.777233        1.000000        0.00000000        0.00000000
     325         -0.775897        1.000000        0.00000000        0.00000000
     326         -0.774887        1.000000        0.00000000        0.00000000
     327         -0.773671        1.000000        0.00000000        0.00000000
     328         -0.773422        1.000000        0.00000000        0.00000000
     329         -0.772414        1.000000        0.00000000        0.00000000
     330         -0.771266        1.000000        0.00000000        0.00000000
     331         -0.770604        1.000000        0.00000000        0.00000000
     332         -0.769886        1.000000        0.00000000        0.00000000
     333         -0.769439        1.000000        0.00000000        0.00000000
     334         -0.769009        1.000000        0.00000000        0.00000000
     335         -0.767483        1.000000        0.00000000        0.00000000
     336         -0.766717        1.000000        0.00000000        0.00000000
     337         -0.765490        1.000000        0.00000000        0.00000000
     338         -0.763700        1.000000        0.00000000        0.00000000
     339         -0.762625        1.000000        0.00000000        0.00000000
     340         -0.761653        1.000000        0.00000000        0.00000000
     341         -0.761196        1.000000        0.00000000        0.00000000
     342         -0.759265        1.000000        0.00000000        0.00000000
     343         -0.758410        1.000000        0.00000000        0.00000000
     344         -0.755260        1.000000        0.00000000        0.00000000
     345         -0.754586        1.000000        0.00000000        0.00000000
     346         -0.703685        1.000000        0.00034961        0.00003414
     347         -0.693847        1.000000        0.00053975        0.00005017
     348         -0.690060        1.000000        0.00008065        0.00000822
     349         -0.688902        1.000000        0.00000294        0.00000104
     350         -0.684111        1.000000        0.00060775        0.00004860
     351         -0.681092        1.000000        0.00012605        0.00001203
     352         -0.678905        1.000000        0.00043783        0.00005681
     353         -0.676982        1.000000        0.00015244        0.00001910
     354         -0.673929        1.000000        0.00001162        0.00000208
     355         -0.673106        1.000000        0.00007118        0.00000511
     356         -0.670728        1.000000        0.00242691        0.00020857
     357         -0.670092        1.000000        0.00145213        0.00013448
     358         -0.669168        1.000000        0.00000552        0.00001082
     359         -0.667801        1.000000        0.00029392        0.00003496
     360         -0.665884        1.000000        0.00130073        0.00008051
     361         -0.664702        1.000000        0.00003615        0.00000891
     362         -0.662263        1.000000        0.00148295        0.00012200
     363         -0.660875        1.000000        0.00018624        0.00000889
     364         -0.658191        1.000000        0.00031370        0.00002809
     365         -0.657373        1.000000        0.00000754        0.00000356
     366         -0.655967        1.000000        0.00001965        0.00000255
     367         -0.655536        1.000000        0.00024756        0.00002616
     368         -0.653752        1.000000        0.00113786        0.00008698
     369         -0.651127        1.000000        0.00000809        0.00000457
     370         -0.648938        1.000000        0.00039309        0.00004713
     371         -0.647875        1.000000        0.00051488        0.00003950
     372         -0.644925        1.000000        0.00008792        0.00001599
     373         -0.644581        1.000000        0.00031497        0.00005115
     374         -0.641910        1.000000        0.00001190        0.00000522
     375         -0.641212        1.000000        0.00124754        0.00011262
     376         -0.639876        1.000000        0.00070713        0.00007066
     377         -0.637901        1.000000        0.00013948        0.00000376