# Projected DOS for list 329 of 1 atoms, at iteration step i = 0, E(Fermi) =    -0.245567 a.u.
#     MO Eigenvalue [a.u.]      Occupation                 s                 p                 d
       1         -3.122063        1.000000        0.00000025        0.00000063        0.00000015
       2         -3.121278        1.000000        0.00000098        0.00000378        0.00000048
       3         -3.121021        1.000000        0.00000004        0.00000042        0.00000021
       4         -3.120578        1.000000        0.00000005        0.00000079        0.00000023
       5         -3.120271        1.000000        0.00000030        0.00000427        0.00000037
       6         -3.119857        1.000000        0.00000001        0.00000023        0.00000005
       7         -3.119652        1.000000        0.00000107        0.00000307        0.00000127
       8         -3.119624        1.000000        0.00000010        0.00000063        0.00000028
       9         -3.119219        1.000000        0.00000036        0.00001392        0.00000071
      10         -3.119023        1.000000        0.00000114        0.00000564        0.00000083
      11         -3.118913        1.000000        0.00000180        0.00000142        0.00000024
      12         -3.118874        1.000000        0.00000007        0.00000193        0.00000012
      13         -3.118317        1.000000        0.00007415        0.00011843        0.00000980
      14         -3.118249        1.000000        0.00003403        0.00015665        0.00001645
      15         -3.117895        1.000000        0.00000215        0.00002616        0.00000429
      16         -3.117383        1.000000        0.00000441        0.00000648        0.00000055
      17         -3.117165        1.000000        0.00001385        0.00020343        0.00001325
      18         -3.116815        1.000000        0.00038098        0.00027395        0.00001552
      19         -3.116436        1.000000        0.00000734        0.00014456        0.00002931
      20         -3.116021        1.000000        0.00015780        0.00017013        0.00000555
      21         -3.115852        1.000000        0.00013340        0.00013556        0.00000771
      22         -3.115668        1.000000        0.00041723        0.00041652        0.00002257
      23         -3.115368        1.000000        0.00012068        0.00014705        0.00001278
      24         -3.115339        1.000000        0.00003548        0.00009093        0.00001168
      25         -3.115041        1.000000        0.00010252        0.00013549        0.00000407
      26         -3.114366        1.000000        0.00339065        0.00558597        0.00013999
      27         -3.113951        1.000000        0.00000045        0.00002460        0.00000467
      28         -3.113764        1.000000        0.00073698        0.00516834        0.00077365
      29         -3.112534        1.000000        0.00000101        0.00000436        0.00000045
      30         -3.111679        1.000000        0.00237188        0.00865934        0.00128464
      31         -1.784233        1.000000        0.00003726        0.00012441        0.00001402
      32         -1.782870        1.000000        0.00004186        0.00012231        0.00000773
      33         -1.782324        1.000000        0.00000762        0.00003091        0.00000695
      34         -1.782130        1.000000        0.00000123        0.00001778        0.00000579
      35         -1.781736        1.000000        0.00000066        0.00000808        0.00000480
      36         -1.781230        1.000000        0.00000005        0.00000103        0.00000073
      37         -1.780847        1.000000        0.00020202        0.00057139        0.00004044
      38         -1.780487        1.000000        0.00000687        0.00001949        0.00000841
      39         -1.780184        1.000000        0.00002638        0.00010597        0.00002244
      40         -1.779550        1.000000        0.00013020        0.00034336        0.00003030
      41         -1.779259        1.000000        0.00000180        0.00015176        0.00006589
      42         -1.778921        1.000000        0.00000224        0.00002946        0.00001412
      43         -1.778390        1.000000        0.00066361        0.00171144        0.00013289
      44         -1.778140        1.000000        0.00000568        0.00010354        0.00005681
      45         -1.777912        1.000000        0.00001069        0.00004167        0.00001025
      46         -1.777514        1.000000        0.00029062        0.00075862        0.00004932
      47         -1.777362        1.000000        0.00017389        0.00049436        0.00004030
      48         -1.776787        1.000000        0.00000060        0.00002126        0.00001860
      49         -1.776537        1.000000        0.00012055        0.00031056        0.00004662
      50         -1.776457        1.000000        0.00040464        0.00106175        0.00009964
      51         -1.776029        1.000000        0.00000133        0.00033125        0.00012394
      52         -1.774038        1.000000        0.00000471        0.00002925        0.00001772
      53         -1.773797        1.000000        0.00000742        0.00001211        0.00000319
      54         -1.773665        1.000000        0.00010598        0.00032388        0.00005891
      55         -1.772725        1.000000        0.00000124        0.00000638        0.00000136
      56         -1.772546        1.000000        0.00000495        0.00001310        0.00000294
      57         -1.772041        1.000000        0.00000446        0.00000810        0.00000066
      58         -1.771662        1.000000        0.00004702        0.00008637        0.00001019
      59         -1.771364        1.000000        0.00001397        0.00002572        0.00000178
      60         -1.770813        1.000000        0.00011049        0.00020278        0.00001490
      61         -1.770640        1.000000        0.00000574        0.00005170        0.00001493
      62         -1.770449        1.000000        0.00000007        0.00001917        0.00000418
      63         -1.770188        1.000000        0.00005654        0.00019334        0.00003961
      64         -1.770126        1.000000        0.00000128        0.00004039        0.00001204
      65         -1.769991        1.000000        0.00001935        0.00008242        0.00002331
      66         -1.769845        1.000000        0.00000202        0.00001004        0.00000426
      67         -1.769763        1.000000        0.00000182        0.00002983        0.00002496
      68         -1.769661        1.000000        0.00002472        0.00004683        0.00000509
      69         -1.769465        1.000000        0.00009738        0.00023030        0.00003912
      70         -1.769351        1.000000        0.00016458        0.00028497        0.00001864
      71         -1.769328        1.000000        0.00000153        0.00005420        0.00003677
      72         -1.769216        1.000000        0.00000094        0.00001239        0.00000911
      73         -1.769129        1.000000        0.00007556        0.00013790        0.00000805
      74         -1.769070        1.000000        0.00005939        0.00012701        0.00001552
      75         -1.768941        1.000000        0.00000166        0.00001539        0.00000513
      76         -1.768822        1.000000        0.00000213        0.00003943        0.00002204
      77         -1.768707        1.000000        0.00003700        0.00012674        0.00003532
      78         -1.768585        1.000000        0.00006709        0.00024590        0.00006100
      79         -1.768439        1.000000        0.00001664        0.00003234        0.00000569
      80         -1.768329        1.000000        0.00005335        0.00016948        0.00002495
      81         -1.768089        1.000000        0.00024505        0.00047975        0.00001717
      82         -1.767883        1.000000        0.00005522        0.00014125        0.00002854
      83         -1.767662        1.000000        0.00000277        0.00002759        0.00001500
      84         -1.767495        1.000000        0.00004324        0.00020456        0.00003038
      85         -1.767311        1.000000        0.00008622        0.00055526        0.00018648
      86         -1.767266        1.000000        0.00003409        0.00017883        0.00006673
      87         -1.767060        1.000000        0.00039179        0.00092641        0.00010154
      88         -1.767025        1.000000        0.00001106        0.00001709        0.00001284
      89         -1.766872        1.000000        0.00014179        0.00027490        0.00002030
      90         -1.766524        1.000000        0.00006058        0.00021282        0.00007528
      91         -1.766405        1.000000        0.00000132        0.00005708        0.00001660
      92         -1.766254        1.000000        0.00004424        0.00011926        0.00005114
      93         -1.766123        1.000000        0.00014570        0.00056516        0.00009922
      94         -1.765857        1.000000        0.00007106        0.00029642        0.00008972
      95         -1.765515        1.000000        0.00000214        0.00006220        0.00001486
      96         -1.765181        1.000000        0.00039679        0.00100473        0.00014324
      97         -1.765105        1.000000        0.00006768        0.00020850        0.00005335
      98         -1.764967        1.000000        0.00001276        0.00004699        0.00002996
      99         -1.764710        1.000000        0.00005106        0.00179731        0.00068819
     100         -1.764440        1.000000        0.00014783        0.00059920        0.00015954
     101         -1.764248        1.000000        0.00016651        0.00025276        0.00002218
     102         -1.763945        1.000000        0.00003709        0.00155088        0.00072703
     103         -1.763804        1.000000        0.00002180        0.00229817        0.00101502
     104         -1.763351        1.000000        0.00002111        0.00013065        0.00007606
     105         -1.763205        1.000000        0.00003572        0.00019778        0.00010622
     106         -1.763107        1.000000        0.00000193        0.00011343        0.00006511
     107         -1.762531        1.000000        0.00001332        0.00023175        0.00010068
     108         -1.762343        1.000000        0.00003503        0.00049848        0.00021873
     109         -1.761453        1.000000        0.00006342        0.00040663        0.00011867
     110         -1.760969        1.000000        0.00000653        0.00029716        0.00012724
     111         -1.760481        1.000000        0.00002140        0.00003715        0.00003810
     112         -1.760009        1.000000        0.00000325        0.00009861        0.00007665
     113         -1.759531        1.000000        0.00000136        0.00004323        0.00009160
     114         -1.759105        1.000000        0.00017678        0.00125427        0.00063194
     115         -1.758777        1.000000        0.00000076        0.00002627        0.00001163
     116         -1.757462        1.000000        0.00000239        0.00001318        0.00001040
     117         -1.756221        1.000000        0.00001080        0.00044815        0.00020485
     118         -1.755333        1.000000        0.00000244        0.00000641        0.00001015
     119         -1.754385        1.000000        0.00000975        0.00039980        0.00018975
     120         -1.752742        1.000000        0.00002866        0.00042020        0.00037496
     121         -1.131181        1.000000        0.00000011        0.00000013        0.00000000
     122         -1.128658        1.000000        0.00000001        0.00000003        0.00000000
     123         -1.128000        1.000000        0.00000007        0.00000009        0.00000000
     124         -1.126427        1.000000        0.00000001        0.00000001        0.00000000
     125         -1.120469        1.000000        0.00000014        0.00000020        0.00000002
     126         -1.119202        1.000000        0.00000013        0.00000025        0.00000002
     127         -1.117081        1.000000        0.00000018        0.00000027        0.00000003
     128         -1.116156        1.000000        0.00000081        0.00000170        0.00000016
     129         -1.115054        1.000000        0.00000014        0.00000004        0.00000000
     130         -1.111818        1.000000        0.00000002        0.00000022        0.00000003
     131         -1.111610        1.000000        0.00000006        0.00000010        0.00000001
     132         -1.110976        1.000000        0.00000005        0.00000008        0.00000001
     133         -1.109888        1.000000        0.00000005        0.00000005        0.00000000
     134         -1.108601        1.000000        0.00000000        0.00000003        0.00000000
     135         -1.108036        1.000000        0.00000002        0.00000001        0.00000000
     136         -1.107349        1.000000        0.00000001        0.00000003        0.00000000
     137         -1.106797        1.000000        0.00000004        0.00000005        0.00000000
     138         -1.106077        1.000000        0.00000001        0.00000004        0.00000000
     139         -1.104162        1.000000        0.00000000        0.00000008        0.00000002
     140         -1.102892        1.000000        0.00000011        0.00000017        0.00000003
     141         -1.102196        1.000000        0.00000008        0.00000014        0.00000002
     142         -1.101581        1.000000        0.00000001        0.00000003        0.00000001
     143         -1.101215        1.000000        0.00000000        0.00000005        0.00000000
     144         -1.099602        1.000000        0.00000011        0.00000029        0.00000005
     145         -1.098107        1.000000        0.00000021        0.00000109        0.00000020
     146         -1.097450        1.000000        0.00000014        0.00000087        0.00000018
     147         -1.097046        1.000000        0.00000002        0.00000014        0.00000003
     148         -1.095795        1.000000        0.00000000        0.00000001        0.00000000
     149         -1.095192        1.000000        0.00000007        0.00000092        0.00000017
     150         -1.093515        1.000000        0.00000005        0.00000026        0.00000003
     151         -1.093123        1.000000        0.00000051        0.00000530        0.00000107
     152         -1.092614        1.000000        0.00000002        0.00000018        0.00000002
     153         -1.091821        1.000000        0.00000001        0.00000007        0.00000002
     154         -1.090761        1.000000        0.00000002        0.00000024        0.00000005
     155         -1.090597        1.000000        0.00000278        0.00003738        0.00000696
     156         -1.089544        1.000000        0.00000146        0.00002032        0.00000358
     157         -1.088154        1.000000        0.00000111        0.00001596        0.00000295
     158         -1.086960        1.000000        0.00000013        0.00000149        0.00000025
     159         -1.086718        1.000000        0.00000004        0.00000085        0.00000017
     160         -1.085525        1.000000        0.00000003        0.00000041        0.00000009
     161         -1.084219        1.000000        0.00000000        0.00000003        0.00000000
     162         -1.082734        1.000000        0.00000001        0.00000007        0.00000001
     163         -1.082381        1.000000        0.00000004        0.00000039        0.00000004
     164         -1.080807        1.000000        0.00000002        0.00000026        0.00000002
     165         -1.080293        1.000000        0.00000002        0.00000028        0.00000006
     166         -1.079453        1.000000        0.00000027        0.00000318        0.00000022
     167         -1.078246        1.000000        0.00000001        0.00000017        0.00000002
     168         -1.077774        1.000000        0.00000003        0.00000004        0.00000001
     169         -1.077143        1.000000        0.00000006        0.00000048        0.00000007
     170         -1.076426        1.000000        0.00000000        0.00000008        0.00000002
     171         -1.076145        1.000000        0.00000005        0.00000077        0.00000007
     172         -1.074526        1.000000        0.00000002        0.00000003        0.00000001
     173         -1.074368        1.000000        0.00000001        0.00000002        0.00000001
     174         -1.073652        1.000000        0.00000015        0.00000159        0.00000013
     175         -1.072808        1.000000        0.00000006        0.00000062        0.00000004
     176         -1.072152        1.000000        0.00000006        0.00000027        0.00000002
     177         -1.071192        1.000000        0.00000000        0.00000001        0.00000000
     178         -1.070444        1.000000        0.00000008        0.00000063        0.00000006
     179         -1.070141        1.000000        0.00000036        0.00000413        0.00000028
     180         -1.069416        1.000000        0.00000004        0.00000029        0.00000005
     181         -1.069179        1.000000        0.00000003        0.00000041        0.00000003
     182         -1.067610        1.000000        0.00000008        0.00000079        0.00000014
     183         -1.066240        1.000000        0.00000021        0.00000198        0.00000009
     184         -1.065124        1.000000        0.00000002        0.00000007        0.00000003
     185         -1.064565        1.000000        0.00000008        0.00000099        0.00000007
     186         -1.063575        1.000000        0.00000007        0.00000064        0.00000007
     187         -1.062901        1.000000        0.00000006        0.00000047        0.00000003
     188         -1.062274        1.000000        0.00000000        0.00000011        0.00000002
     189         -1.061481        1.000000        0.00000005        0.00000029        0.00000005
     190         -1.061312        1.000000        0.00000001        0.00000011        0.00000002
     191         -1.060592        1.000000        0.00000007        0.00000055        0.00000004
     192         -1.059297        1.000000        0.00000004        0.00000023        0.00000001
     193         -1.058643        1.000000        0.00000000        0.00000007        0.00000002
     194         -1.058262        1.000000        0.00000006        0.00000126        0.00000017
     195         -1.057127        1.000000        0.00000016        0.00000040        0.00000006
     196         -1.056224        1.000000        0.00000030        0.00000053        0.00000012
     197         -1.056050        1.000000        0.00000001        0.00000020        0.00000003
     198         -1.054881        1.000000        0.00000011        0.00000027        0.00000001
     199         -1.054669        1.000000        0.00000001        0.00000003        0.00000001
     200         -1.053605        1.000000        0.00000001        0.00000004        0.00000000
     201         -1.053457        1.000000        0.00000003        0.00000004        0.00000001
     202         -1.052589        1.000000        0.00000001        0.00000002        0.00000001
     203         -1.052089        1.000000        0.00000002        0.00000071        0.00000012
     204         -1.051299        1.000000        0.00000002        0.00000033        0.00000007
     205         -1.050676        1.000000        0.00000006        0.00000073        0.00000013
     206         -1.050307        1.000000        0.00000001        0.00000030        0.00000004
     207         -1.049921        1.000000        0.00000008        0.00000083        0.00000017
     208         -1.049485        1.000000        0.00000001        0.00000023        0.00000004
     209         -1.049126        1.000000        0.00000001        0.00000001        0.00000001
     210         -1.048445        1.000000        0.00000002        0.00000005        0.00000001
     211         -1.048201        1.000000        0.00000000        0.00000002        0.00000001
     212         -1.047911        1.000000        0.00000002        0.00000003        0.00000001
     213         -1.047620        1.000000        0.00000001        0.00000019        0.00000002
     214         -1.046931        1.000000        0.00000004        0.00000063        0.00000008
     215         -1.046733        1.000000        0.00000000        0.00000016        0.00000002
     216         -1.046634        1.000000        0.00000004        0.00000015        0.00000004
     217         -1.045930        1.000000        0.00000000        0.00000002        0.00000001
     218         -1.045069        1.000000        0.00000002        0.00000018        0.00000001
     219         -1.044350        1.000000        0.00000000        0.00000002        0.00000000
     220         -1.043623        1.000000        0.00000007        0.00000113        0.00000009
     221         -1.043421        1.000000        0.00000002        0.00000036        0.00000003
     222         -1.042778        1.000000        0.00000000        0.00000002        0.00000000
     223         -1.042701        1.000000        0.00000001        0.00000005        0.00000000
     224         -1.042424        1.000000        0.00000002        0.00000012        0.00000001
     225         -1.041682        1.000000        0.00000001        0.00000004        0.00000002
     226         -1.041498        1.000000        0.00000009        0.00000038        0.00000004
     227         -1.040837        1.000000        0.00000001        0.00000008        0.00000004
     228         -1.040496        1.000000        0.00000001        0.00000006        0.00000001
     229         -1.040151        1.000000        0.00000001        0.00000009        0.00000001
     230         -1.039686        1.000000        0.00000000        0.00000001        0.00000001
     231         -1.038961        1.000000        0.00000000        0.00000001        0.00000000
     232         -1.038553        1.000000        0.00000001        0.00000003        0.00000000
     233         -1.038476        1.000000        0.00000000        0.00000001        0.00000000
     234         -1.038152        1.000000        0.00000000        0.00000002        0.00000000
     235         -1.038041        1.000000        0.00000000        0.00000000        0.00000000
     236         -1.036855        1.000000        0.00000000        0.00000001        0.00000000
     237         -1.036488        1.000000        0.00000000        0.00000002        0.00000001
     238         -1.036186        1.000000        0.00000000        0.00000000        0.00000000
     239         -1.036068        1.000000        0.00000000        0.00000001        0.00000000
     240         -1.035757        1.000000        0.00000000        0.00000005        0.00000001
     241         -1.035291        1.000000        0.00000000        0.00000004        0.00000001
     242         -1.035048        1.000000        0.00000000        0.00000001        0.00000000
     243         -1.035000        1.000000        0.00000000        0.00000002        0.00000001
     244         -1.034454        1.000000        0.00000000        0.00000001        0.00000000
     245         -1.034219        1.000000        0.00000000        0.00000003        0.00000000
     246         -1.033874        1.000000        0.00000000        0.00000001        0.00000000
     247         -1.033507        1.000000        0.00000000        0.00000000        0.00000000
     248         -1.033219        1.000000        0.00000000        0.00000001        0.00000000
     249         -1.033056        1.000000        0.00000000        0.00000001        0.00000000
     250         -1.032307        1.000000        0.00000000        0.00000003        0.00000001
     251         -1.031324        1.000000        0.00000001        0.00000006        0.00000001
     252         -1.031144        1.000000        0.00000002        0.00000006        0.00000001
     253         -1.030643        1.000000        0.00000003        0.00000018        0.00000005
     254         -1.030284        1.000000        0.00000000        0.00000003        0.00000001
     255         -1.030062        1.000000        0.00000001        0.00000004        0.00000000
     256         -1.029818        1.000000        0.00000000        0.00000003        0.00000001
     257         -1.028552        1.000000        0.00000001        0.00000004        0.00000001
     258         -1.027578        1.000000        0.00000000        0.00000000        0.00000000
     259         -1.027121        1.000000        0.00000001        0.00000003        0.00000000
     260         -1.026880        1.000000        0.00000007        0.00000028        0.00000002
     261         -1.026226        1.000000        0.00000004        0.00000016        0.00000002
     262         -1.025765        1.000000        0.00000002        0.00000010        0.00000000
     263         -1.025299        1.000000        0.00000000        0.00000001        0.00000000
     264         -1.025158        1.000000        0.00000003        0.00000023        0.00000004
     265         -1.025007        1.000000        0.00000017        0.00000071        0.00000002
     266         -1.024422        1.000000        0.00000011        0.00000058        0.00000003
     267         -1.023793        1.000000        0.00000001        0.00000005        0.00000000
     268         -1.023594        1.000000        0.00000006        0.00000179        0.00000048
     269         -1.023069        1.000000        0.00000010        0.00000027        0.00000007
     270         -1.022603        1.000000        0.00000005        0.00000014        0.00000003
     271         -1.022074        1.000000        0.00000001        0.00000003        0.00000002
     272         -1.021695        1.000000        0.00000001        0.00000003        0.00000000
     273         -1.021372        1.000000        0.00000000        0.00000000        0.00000000
     274         -1.021076        1.000000        0.00000003        0.00000017        0.00000005
     275         -1.019492        1.000000        0.00000000        0.00000002        0.00000000
     276         -1.018003        1.000000        0.00000000        0.00000000        0.00000000
     277         -1.016408        1.000000        0.00000000        0.00000004        0.00000001
     278         -1.016278        1.000000        0.00000000        0.00000000        0.00000000
     279         -1.015338        1.000000        0.00000000        0.00000000        0.00000000
     280         -1.013851        1.000000        0.00000000        0.00000000        0.00000000
     281         -1.010223        1.000000        0.00000000        0.00000000        0.00000000
     282         -1.009666        1.000000        0.00000000        0.00000000        0.00000000
     283         -1.007726        1.000000        0.00000004        0.00000027        0.00000006
     284         -1.007300        1.000000        0.00000000        0.00000003        0.00000001
     285         -1.006916        1.000000        0.00000000        0.00000000        0.00000000
     286         -0.889442        1.000000        0.00579797        0.00039059        0.00000255
     287         -0.869424        1.000000        0.01649751        0.00119868        0.00001758
     288         -0.867225        1.000000        0.00317214        0.00071166        0.00001510
     289         -0.864755        1.000000        0.00545490        0.00080378        0.00001350
     290         -0.860947        1.000000        0.00080359        0.00052281        0.00003982
     291         -0.846899        1.000000        0.01369056        0.00130733        0.00001499
     292         -0.844423        1.000000        0.00003560        0.00038284        0.00007472
     293         -0.843782        1.000000        0.00114101        0.00137780        0.00003007
     294         -0.840445        1.000000        0.00543940        0.00133134        0.00006928
     295         -0.821748        1.000000        0.01172974        0.00040310        0.00012124
     296         -0.818927        1.000000        0.00011990        0.00078189        0.00003529
     297         -0.814033        1.000000        0.00376724        0.00014014        0.00008105
     298         -0.808071        1.000000        0.00431210        0.00068973        0.00013897
     299         -0.807076        1.000000        0.00029657        0.00043750        0.00012822
     300         -0.806003        1.000000        0.00494696        0.00117751        0.00002474
     301         -0.805433        1.000000        0.00905715        0.00007577        0.00002164
     302         -0.803208        1.000000        0.00921469        0.00018622        0.00000922
     303         -0.802271        1.000000        0.00072411        0.00017294        0.00007795
     304         -0.801014        1.000000        0.00072436        0.00023845        0.00001744
     305         -0.800419        1.000000        0.00061868        0.00008177        0.00003547
     306         -0.800163        1.000000        0.01762437        0.00029500        0.00008143
     307         -0.798966        1.000000        0.01476288        0.00011593        0.00005893