# Projected DOS for atomic kind Hb at iteration step i = 0, E(Fermi) =    -0.245567 a.u.
#     MO Eigenvalue [a.u.]      Occupation                 s                 p
       1         -3.122063        1.000000        0.00000000        0.00000000
       2         -3.121278        1.000000        0.00000000        0.00000000
       3         -3.121021        1.000000        0.00000000        0.00000000
       4         -3.120578        1.000000        0.00000000        0.00000000
       5         -3.120271        1.000000        0.00000000        0.00000000
       6         -3.119857        1.000000        0.00000000        0.00000000
       7         -3.119652        1.000000        0.00000000        0.00000000
       8         -3.119624        1.000000        0.00000000        0.00000000
       9         -3.119219        1.000000        0.00000000        0.00000000
      10         -3.119023        1.000000        0.00000000        0.00000000
      11         -3.118913        1.000000        0.00000000        0.00000000
      12         -3.118874        1.000000        0.00000000        0.00000000
      13         -3.118317        1.000000        0.00000000        0.00000000
      14         -3.118249        1.000000        0.00000000        0.00000000
      15         -3.117895        1.000000        0.00000000        0.00000000
      16         -3.117383        1.000000        0.00000000        0.00000000
      17         -3.117165        1.000000        0.00000000        0.00000000
      18         -3.116815        1.000000        0.00000000        0.00000000
      19         -3.116436        1.000000        0.00000000        0.00000000
      20         -3.116021        1.000000        0.00000000        0.00000000
      21         -3.115852        1.000000        0.00000000        0.00000000
      22         -3.115668        1.000000        0.00000000        0.00000000
      23         -3.115368        1.000000        0.00000000        0.00000000
      24         -3.115339        1.000000        0.00000000        0.00000000
      25         -3.115041        1.000000        0.00000000        0.00000000
      26         -3.114366        1.000000        0.00000000        0.00000000
      27         -3.113951        1.000000        0.00000000        0.00000000
      28         -3.113764        1.000000        0.00000000        0.00000000
      29         -3.112534        1.000000        0.00000000        0.00000000
      30         -3.111679        1.000000        0.00000000        0.00000000
      31         -1.784233        1.000000        0.00000000        0.00000000
      32         -1.782870        1.000000        0.00000000        0.00000000
      33         -1.782324        1.000000        0.00000000        0.00000000
      34         -1.782130        1.000000        0.00000000        0.00000000
      35         -1.781736        1.000000        0.00000000        0.00000000
      36         -1.781230        1.000000        0.00000000        0.00000000
      37         -1.780847        1.000000        0.00000000        0.00000000
      38         -1.780487        1.000000        0.00000000        0.00000000
      39         -1.780184        1.000000        0.00000000        0.00000000
      40         -1.779550        1.000000        0.00000000        0.00000000
      41         -1.779259        1.000000        0.00000000        0.00000000
      42         -1.778921        1.000000        0.00000000        0.00000000
      43         -1.778390        1.000000        0.00000000        0.00000000
      44         -1.778140        1.000000        0.00000000        0.00000000
      45         -1.777912        1.000000        0.00000000        0.00000000
      46         -1.777514        1.000000        0.00000000        0.00000000
      47         -1.777362        1.000000        0.00000000        0.00000000
      48         -1.776787        1.000000        0.00000000        0.00000000
      49         -1.776537        1.000000        0.00000000        0.00000000
      50         -1.776457        1.000000        0.00000000        0.00000000
      51         -1.776029        1.000000        0.00000000        0.00000000
      52         -1.774038        1.000000        0.00000000        0.00000000
      53         -1.773797        1.000000        0.00000000        0.00000000
      54         -1.773665        1.000000        0.00000000        0.00000000
      55         -1.772725        1.000000        0.00000000        0.00000000
      56         -1.772546        1.000000        0.00000000        0.00000000
      57         -1.772041        1.000000        0.00000000        0.00000000
      58         -1.771662        1.000000        0.00000000        0.00000000
      59         -1.771364        1.000000        0.00000000        0.00000000
      60         -1.770813        1.000000        0.00000000        0.00000000
      61         -1.770640        1.000000        0.00000000        0.00000000
      62         -1.770449        1.000000        0.00000000        0.00000000
      63         -1.770188        1.000000        0.00000000        0.00000000
      64         -1.770126        1.000000        0.00000000        0.00000000
      65         -1.769991        1.000000        0.00000000        0.00000000
      66         -1.769845        1.000000        0.00000000        0.00000000
      67         -1.769763        1.000000        0.00000000        0.00000000
      68         -1.769661        1.000000        0.00000000        0.00000000
      69         -1.769465        1.000000        0.00000000        0.00000000
      70         -1.769351        1.000000        0.00000000        0.00000000
      71         -1.769328        1.000000        0.00000000        0.00000000
      72         -1.769216        1.000000        0.00000000        0.00000000
      73         -1.769129        1.000000        0.00000000        0.00000000
      74         -1.769070        1.000000        0.00000000        0.00000000
      75         -1.768941        1.000000        0.00000000        0.00000000
      76         -1.768822        1.000000        0.00000000        0.00000000
      77         -1.768707        1.000000        0.00000000        0.00000000
      78         -1.768585        1.000000        0.00000000        0.00000000
      79         -1.768439        1.000000        0.00000000        0.00000000
      80         -1.768329        1.000000        0.00000000        0.00000000
      81         -1.768089        1.000000        0.00000000        0.00000000
      82         -1.767883        1.000000        0.00000000        0.00000000
      83         -1.767662        1.000000        0.00000000        0.00000000
      84         -1.767495        1.000000        0.00000000        0.00000000
      85         -1.767311        1.000000        0.00000000        0.00000000
      86         -1.767266        1.000000        0.00000000        0.00000000
      87         -1.767060        1.000000        0.00000000        0.00000000
      88         -1.767025        1.000000        0.00000000        0.00000000
      89         -1.766872        1.000000        0.00000000        0.00000000
      90         -1.766524        1.000000        0.00000000        0.00000000
      91         -1.766405        1.000000        0.00000000        0.00000000
      92         -1.766254        1.000000        0.00000000        0.00000000
      93         -1.766123        1.000000        0.00000000        0.00000000
      94         -1.765857        1.000000        0.00000000        0.00000000
      95         -1.765515        1.000000        0.00000000        0.00000000
      96         -1.765181        1.000000        0.00000000        0.00000000
      97         -1.765105        1.000000        0.00000000        0.00000000
      98         -1.764967        1.000000        0.00000000        0.00000000
      99         -1.764710        1.000000        0.00000000        0.00000000
     100         -1.764440        1.000000        0.00000000        0.00000000
     101         -1.764248        1.000000        0.00000000        0.00000000
     102         -1.763945        1.000000        0.00000000        0.00000000
     103         -1.763804        1.000000        0.00000000        0.00000000
     104         -1.763351        1.000000        0.00000000        0.00000000
     105         -1.763205        1.000000        0.00000000        0.00000000
     106         -1.763107        1.000000        0.00000000        0.00000000
     107         -1.762531        1.000000        0.00000000        0.00000000
     108         -1.762343        1.000000        0.00000000        0.00000000
     109         -1.761453        1.000000        0.00000000        0.00000000
     110         -1.760969        1.000000        0.00000000        0.00000000
     111         -1.760481        1.000000        0.00000000        0.00000000
     112         -1.760009        1.000000        0.00000000        0.00000000
     113         -1.759531        1.000000        0.00000000        0.00000000
     114         -1.759105        1.000000        0.00000000        0.00000000
     115         -1.758777        1.000000        0.00000000        0.00000000
     116         -1.757462        1.000000        0.00000000        0.00000000
     117         -1.756221        1.000000        0.00000000        0.00000000
     118         -1.755333        1.000000        0.00000000        0.00000000
     119         -1.754385        1.000000        0.00000000        0.00000000
     120         -1.752742        1.000000        0.00000000        0.00000000
     121         -1.131181        1.000000        0.00636356        0.00354292
     122         -1.128658        1.000000        0.00747038        0.00415620
     123         -1.128000        1.000000        0.03003773        0.01567920
     124         -1.126427        1.000000        0.03471083        0.02266806
     125         -1.120469        1.000000        0.00657905        0.00614966
     126         -1.119202        1.000000        0.00838004        0.00522434
     127         -1.117081        1.000000        0.00523213        0.00309888
     128         -1.116156        1.000000        0.00156395        0.00103106
     129         -1.115054        1.000000        0.00085705        0.00060830
     130         -1.111818        1.000000        0.00761669        0.00520217
     131         -1.111610        1.000000        0.00269821        0.00227482
     132         -1.110976        1.000000        0.01685717        0.01144520
     133         -1.109888        1.000000        0.01768186        0.01218447
     134         -1.108601        1.000000        0.01125208        0.00802752
     135         -1.108036        1.000000        0.02187733        0.01383733
     136         -1.107349        1.000000        0.00383597        0.00284573
     137         -1.106797        1.000000        0.01144881        0.00782317
     138         -1.106077        1.000000        0.01388501        0.00979016
     139         -1.104162        1.000000        0.00570215        0.00428072
     140         -1.102892        1.000000        0.00972984        0.00623191
     141         -1.102196        1.000000        0.01489122        0.00997630
     142         -1.101581        1.000000        0.01323110        0.00795103
     143         -1.101215        1.000000        0.01035972        0.00704360
     144         -1.099602        1.000000        0.00728087        0.00421108
     145         -1.098107        1.000000        0.01118787        0.00842771
     146         -1.097450        1.000000        0.01372245        0.00855601
     147         -1.097046        1.000000        0.01665912        0.01129320
     148         -1.095795        1.000000        0.01426083        0.00948298
     149         -1.095192        1.000000        0.02909542        0.01863410
     150         -1.093515        1.000000        0.02150697        0.01551012
     151         -1.093123        1.000000        0.00986543        0.00665535
     152         -1.092614        1.000000        0.01228225        0.00784351
     153         -1.091821        1.000000        0.00817804        0.00512522
     154         -1.090761        1.000000        0.00896609        0.00496102
     155         -1.090597        1.000000        0.00505506        0.00319536
     156         -1.089544        1.000000        0.00689505        0.00416989
     157         -1.088154        1.000000        0.00756475        0.00433130
     158         -1.086960        1.000000        0.03463905        0.01990396
     159         -1.086718        1.000000        0.03186019        0.01702060
     160         -1.085525        1.000000        0.01149341        0.00572966
     161         -1.084219        1.000000        0.04832360        0.02404783
     162         -1.082734        1.000000        0.02760942        0.01544817
     163         -1.082381        1.000000        0.00324720        0.00165475
     164         -1.080807        1.000000        0.03606224        0.01807781
     165         -1.080293        1.000000        0.01430893        0.00737391
     166         -1.079453        1.000000        0.02913326        0.01657394
     167         -1.078246        1.000000        0.02781041        0.01344260
     168         -1.077774        1.000000        0.00902133        0.00443015
     169         -1.077143        1.000000        0.03148275        0.01206755
     170         -1.076426        1.000000        0.02404282        0.01069785
     171         -1.076145        1.000000        0.03694083        0.01446779
     172         -1.074526        1.000000        0.01722396        0.00807041
     173         -1.074368        1.000000        0.02039153        0.00875190
     174         -1.073652        1.000000        0.03039301        0.01505294
     175         -1.072808        1.000000        0.01146039        0.00531535
     176         -1.072152        1.000000        0.02101494        0.00845416
     177         -1.071192        1.000000        0.01101990        0.00585908
     178         -1.070444        1.000000        0.01256512        0.00656440
     179         -1.070141        1.000000        0.02435432        0.01064486
     180         -1.069416        1.000000        0.01737267        0.01002456
     181         -1.069179        1.000000        0.00752889        0.00329621
     182         -1.067610        1.000000        0.01507316        0.00662627
     183         -1.066240        1.000000        0.00676961        0.00390186
     184         -1.065124        1.000000        0.01204231        0.00528843
     185         -1.064565        1.000000        0.01238131        0.00515433
     186         -1.063575        1.000000        0.00660008        0.00303358
     187         -1.062901        1.000000        0.01653772        0.00741438
     188         -1.062274        1.000000        0.02582321        0.01127826
     189         -1.061481        1.000000        0.01763091        0.00748679
     190         -1.061312        1.000000        0.00993292        0.00415520
     191         -1.060592        1.000000        0.01867663        0.00852406
     192         -1.059297        1.000000        0.01776853        0.00802116
     193         -1.058643        1.000000        0.02046580        0.00796912
     194         -1.058262        1.000000        0.00252652        0.00111537
     195         -1.057127        1.000000        0.02080057        0.00831560
     196         -1.056224        1.000000        0.00321493        0.00148117
     197         -1.056050        1.000000        0.01718888        0.00682760
     198         -1.054881        1.000000        0.01241273        0.00495001
     199         -1.054669        1.000000        0.01104955        0.00552209
     200         -1.053605        1.000000        0.02235073        0.01032761
     201         -1.053457        1.000000        0.03798451        0.01488406
     202         -1.052589        1.000000        0.00901311        0.00384315
     203         -1.052089        1.000000        0.03409439        0.01487902
     204         -1.051299        1.000000        0.01290383        0.00508198
     205         -1.050676        1.000000        0.01484567        0.00662079
     206         -1.050307        1.000000        0.01752825        0.00721774
     207         -1.049921        1.000000        0.01586766        0.00715263
     208         -1.049485        1.000000        0.01058901        0.00471726
     209         -1.049126        1.000000        0.02410675        0.00975131
     210         -1.048445        1.000000        0.01873940        0.00842445
     211         -1.048201        1.000000        0.01173122        0.00522935
     212         -1.047911        1.000000        0.03058813        0.01359702
     213         -1.047620        1.000000        0.01111179        0.00522474
     214         -1.046931        1.000000        0.00845414        0.00383377
     215         -1.046733        1.000000        0.02012799        0.00810406
     216         -1.046634        1.000000        0.02663562        0.01166423
     217         -1.045930        1.000000        0.01827349        0.00770170
     218         -1.045069        1.000000        0.00878841        0.00377643
     219         -1.044350        1.000000        0.01058100        0.00505758
     220         -1.043623        1.000000        0.00258278        0.00103914
     221         -1.043421        1.000000        0.00047839        0.00019262
     222         -1.042778        1.000000        0.02102600        0.00829359
     223         -1.042701        1.000000        0.04549964        0.01849378
     224         -1.042424        1.000000        0.01921105        0.00784426
     225         -1.041682        1.000000        0.02703226        0.01071179
     226         -1.041498        1.000000        0.00450637        0.00185288
     227         -1.040837        1.000000        0.01143508        0.00477664
     228         -1.040496        1.000000        0.03418027        0.01395236
     229         -1.040151        1.000000        0.02380982        0.01022143
     230         -1.039686        1.000000        0.03526415        0.01509313
     231         -1.038961        1.000000        0.05156796        0.02002405
     232         -1.038553        1.000000        0.02742005        0.01106641
     233         -1.038476        1.000000        0.06961074        0.02632481
     234         -1.038152        1.000000        0.00916433        0.00359743
     235         -1.038041        1.000000        0.01662064        0.00679169
     236         -1.036855        1.000000        0.00705573        0.00317807
     237         -1.036488        1.000000        0.00460688        0.00200894
     238         -1.036186        1.000000        0.01316034        0.00510514
     239         -1.036068        1.000000        0.01828936        0.00746391
     240         -1.035757        1.000000        0.00936205        0.00382004
     241         -1.035291        1.000000        0.01327916        0.00541278
     242         -1.035048        1.000000        0.00552634        0.00213298
     243         -1.035000        1.000000        0.01398320        0.00581013
     244         -1.034454        1.000000        0.00691212        0.00285623
     245         -1.034219        1.000000        0.00172363        0.00063550
     246         -1.033874        1.000000        0.01102093        0.00416230
     247         -1.033507        1.000000        0.02444536        0.00958470
     248         -1.033219        1.000000        0.00242172        0.00090990
     249         -1.033056        1.000000        0.02199463        0.00852358
     250         -1.032307        1.000000        0.00323770        0.00124345
     251         -1.031324        1.000000        0.00239276        0.00090741
     252         -1.031144        1.000000        0.01249147        0.00468429
     253         -1.030643        1.000000        0.00245884        0.00097033
     254         -1.030284        1.000000        0.00789519        0.00307781
     255         -1.030062        1.000000        0.01413751        0.00573481
     256         -1.029818        1.000000        0.00129383        0.00049601
     257         -1.028552        1.000000        0.00552360        0.00198444
     258         -1.027578        1.000000        0.00152443        0.00056877
     259         -1.027121        1.000000        0.00085661        0.00029195
     260         -1.026880        1.000000        0.00987375        0.00373571
     261         -1.026226        1.000000        0.00053817        0.00020256
     262         -1.025765        1.000000        0.00716057        0.00261862
     263         -1.025299        1.000000        0.03458193        0.01465918
     264         -1.025158        1.000000        0.00067131        0.00027471
     265         -1.025007        1.000000        0.00052671        0.00019171
     266         -1.024422        1.000000        0.00002992        0.00001272
     267         -1.023793        1.000000        0.00476263        0.00185311
     268         -1.023594        1.000000        0.00041580        0.00013549
     269         -1.023069        1.000000        0.00077531        0.00026232
     270         -1.022603        1.000000        0.00259829        0.00089363
     271         -1.022074        1.000000        0.00121714        0.00036110
     272         -1.021695        1.000000        0.00497032        0.00147420
     273         -1.021372        1.000000        0.01521468        0.00574401
     274         -1.021076        1.000000        0.00011658        0.00003969
     275         -1.019492        1.000000        0.00001314        0.00000471
     276         -1.018003        1.000000        0.00034556        0.00012309
     277         -1.016408        1.000000        0.00000824        0.00000293
     278         -1.016278        1.000000        0.00007944        0.00002884
     279         -1.015338        1.000000        0.00010053        0.00003621
     280         -1.013851        1.000000        0.00005026        0.00001701
     281         -1.010223        1.000000        0.00000118        0.00000043
     282         -1.009666        1.000000        0.00218006        0.00065498
     283         -1.007726        1.000000        0.00000092        0.00000038
     284         -1.007300        1.000000        0.00002544        0.00000983
     285         -1.006916        1.000000        0.00149240        0.00056818
     286         -0.889442        1.000000        0.00000000        0.00000000
     287         -0.869424        1.000000        0.00000000        0.00000000
     288         -0.867225        1.000000        0.00000000        0.00000000
     289         -0.864755        1.000000        0.00000000        0.00000000
     290         -0.860947        1.000000        0.00000000        0.00000000
     291         -0.846899        1.000000        0.00000000        0.00000000
     292         -0.844423        1.000000        0.00000000        0.00000000
     293         -0.843782        1.000000        0.00000000        0.00000000
     294         -0.840445        1.000000        0.00000000        0.00000000
     295         -0.821748        1.000000        0.00000000        0.00000000
     296         -0.818927        1.000000        0.00000000        0.00000000
     297         -0.814033        1.000000        0.00000000        0.00000000
     298         -0.808071        1.000000        0.00000000        0.00000000
     299         -0.807076        1.000000        0.00000000        0.00000000
     300         -0.806003        1.000000        0.00000000        0.00000000
     301         -0.805433        1.000000        0.00000000        0.00000000
     302         -0.803208        1.000000        0.00000000        0.00000000
     303         -0.802271        1.000000        0.00000000        0.00000000
     304         -0.801014        1.000000        0.00000000        0.00000000
     305         -0.800419        1.000000        0.00000000        0.00000000
     306         -0.800163        1.000000        0.00000000        0.00000000
     307         -0.798966        1.000000        0.00000000        0.00000000
     308         -0.796270        1.000000        0.00000000        0.00000000
     309         -0.795746        1.000000        0.00000000        0.00000000
     310         -0.794333        1.000000        0.00000000        0.00000000
     311         -0.792293        1.000000        0.00000000        0.00000000
     312         -0.791548        1.000000        0.00000000        0.00000000
     313         -0.790603        1.000000        0.00000000        0.00000000
     314         -0.790424        1.000000        0.00000000        0.00000000
     315         -0.789930        1.000000        0.00000000        0.00000000
     316         -0.788450        1.000000        0.00000000        0.00000000
     317         -0.787526        1.000000        0.00000000        0.00000000
     318         -0.786788        1.000000        0.00000000        0.00000000
     319         -0.781836        1.000000        0.00000000        0.00000000
     320         -0.780998        1.000000        0.00000000        0.00000000
     321         -0.780477        1.000000        0.00000000        0.00000000
     322         -0.779060        1.000000        0.00000000        0.00000000
     323         -0.778943        1.000000        0.00000000        0.00000000
     324         -0.777233        1.000000        0.00000000        0.00000000
     325         -0.775897        1.000000        0.00000000        0.00000000
     326         -0.774887        1.000000        0.00000000        0.00000000
     327         -0.773671        1.000000        0.00000000        0.00000000
     328         -0.773422        1.000000        0.00000000        0.00000000
     329         -0.772414        1.000000        0.00000000        0.00000000
     330         -0.771266        1.000000        0.00000000        0.00000000
     331         -0.770604        1.000000        0.00000000        0.00000000
     332         -0.769886        1.000000        0.00000000        0.00000000
     333         -0.769439        1.000000        0.00000000        0.00000000
     334         -0.769009        1.000000        0.00000000        0.00000000
     335         -0.767483        1.000000        0.00000000        0.00000000
     336         -0.766717        1.000000        0.00000000        0.00000000
     337         -0.765490        1.000000        0.00000000        0.00000000
     338         -0.763700        1.000000        0.00000000        0.00000000
     339         -0.762625        1.000000        0.00000000        0.00000000
     340         -0.761653        1.000000        0.00000000        0.00000000
     341         -0.761196        1.000000        0.00000000        0.00000000
     342         -0.759265        1.000000        0.00000000        0.00000000
     343         -0.758410        1.000000        0.00000000        0.00000000
     344         -0.755260        1.000000        0.00000000        0.00000000
     345         -0.754586        1.000000        0.00000000        0.00000000
     346         -0.703685        1.000000        0.00429958        0.00055314
     347         -0.693847        1.000000        0.01010930        0.00086119
     348         -0.690060        1.000000        0.00626020        0.00092317
     349         -0.688902        1.000000        0.00172157        0.00039101
     350         -0.684111        1.000000        0.00251474        0.00029754
     351         -0.681092        1.000000        0.00393032        0.00090357
     352         -0.678905        1.000000        0.01100199        0.00081459
     353         -0.676982        1.000000        0.00361323        0.00060885
     354         -0.673929        1.000000        0.00475861        0.00038006
     355         -0.673106        1.000000        0.00256189        0.00036781
     356         -0.670728        1.000000        0.00526724        0.00055218
     357         -0.670092        1.000000        0.00350903        0.00044552
     358         -0.669168        1.000000        0.00413794        0.00061870
     359         -0.667801        1.000000        0.00607232        0.00058256
     360         -0.665884        1.000000        0.00831785        0.00094999
     361         -0.664702        1.000000        0.00402723        0.00030388
     362         -0.662263        1.000000        0.00970979        0.00074604
     363         -0.660875        1.000000        0.00351670        0.00045497
     364         -0.658191        1.000000        0.00345920        0.00046239
     365         -0.657373        1.000000        0.00397158        0.00064034
     366         -0.655967        1.000000        0.00742616        0.00063471
     367         -0.655536        1.000000        0.00427842        0.00045191
     368         -0.653752        1.000000        0.00541820        0.00050609
     369         -0.651127        1.000000        0.00354900        0.00060850
     370         -0.648938        1.000000        0.00689071        0.00073329
     371         -0.647875        1.000000        0.00464662        0.00045751
     372         -0.644925        1.000000        0.00635170        0.00053905
     373         -0.644581        1.000000        0.00362647        0.00035880
     374         -0.641910        1.000000        0.00612002        0.00060421
     375         -0.641212        1.000000        0.00806980        0.00060014
     376         -0.639876        1.000000        0.00328496        0.00032435
     377         -0.637901        1.000000        0.01034747        0.00084188