# Projected DOS for list 359 of 1 atoms, at iteration step i = 0, E(Fermi) =    -0.245567 a.u.
#     MO Eigenvalue [a.u.]      Occupation                 s                 p
       1         -3.122063        1.000000        0.00000001        0.00000018
       2         -3.121278        1.000000        0.00000000        0.00000020
       3         -3.121021        1.000000        0.00000000        0.00000011
       4         -3.120578        1.000000        0.00000000        0.00000002
       5         -3.120271        1.000000        0.00000000        0.00000014
       6         -3.119857        1.000000        0.00000002        0.00000058
       7         -3.119652        1.000000        0.00000107        0.00001623
       8         -3.119624        1.000000        0.00000017        0.00000214
       9         -3.119219        1.000000        0.00000000        0.00000028
      10         -3.119023        1.000000        0.00000002        0.00000137
      11         -3.118913        1.000000        0.00000007        0.00000175
      12         -3.118874        1.000000        0.00000000        0.00000026
      13         -3.118317        1.000000        0.00000003        0.00000204
      14         -3.118249        1.000000        0.00000001        0.00000064
      15         -3.117895        1.000000        0.00000005        0.00000108
      16         -3.117383        1.000000        0.00000009        0.00000168
      17         -3.117165        1.000000        0.00000051        0.00000508
      18         -3.116815        1.000000        0.00000950        0.00007490
      19         -3.116436        1.000000        0.00000260        0.00000834
      20         -3.116021        1.000000        0.00000001        0.00000381
      21         -3.115852        1.000000        0.00000002        0.00000247
      22         -3.115668        1.000000        0.00000011        0.00000220
      23         -3.115368        1.000000        0.00000013        0.00000140
      24         -3.115339        1.000000        0.00000021        0.00000163
      25         -3.115041        1.000000        0.00000002        0.00000037
      26         -3.114366        1.000000        0.00000181        0.00001318
      27         -3.113951        1.000000        0.00000000        0.00000003
      28         -3.113764        1.000000        0.00000034        0.00000451
      29         -3.112534        1.000000        0.00000001        0.00000004
      30         -3.111679        1.000000        0.00000259        0.00003085
      31         -1.784233        1.000000        0.00000005        0.00000013
      32         -1.782870        1.000000        0.00000003        0.00000012
      33         -1.782324        1.000000        0.00000000        0.00000001
      34         -1.782130        1.000000        0.00000000        0.00000001
      35         -1.781736        1.000000        0.00000004        0.00000008
      36         -1.781230        1.000000        0.00000003        0.00000015
      37         -1.780847        1.000000        0.00000000        0.00000005
      38         -1.780487        1.000000        0.00000014        0.00000040
      39         -1.780184        1.000000        0.00000014        0.00000052
      40         -1.779550        1.000000        0.00000007        0.00000091
      41         -1.779259        1.000000        0.00000004        0.00000007
      42         -1.778921        1.000000        0.00000031        0.00000074
      43         -1.778390        1.000000        0.00000001        0.00000047
      44         -1.778140        1.000000        0.00000061        0.00000203
      45         -1.777912        1.000000        0.00000007        0.00000013
      46         -1.777514        1.000000        0.00000004        0.00000098
      47         -1.777362        1.000000        0.00000003        0.00000042
      48         -1.776787        1.000000        0.00000006        0.00000023
      49         -1.776537        1.000000        0.00000008        0.00000064
      50         -1.776457        1.000000        0.00000000        0.00000016
      51         -1.776029        1.000000        0.00000018        0.00000106
      52         -1.774038        1.000000        0.00000002        0.00000015
      53         -1.773797        1.000000        0.00000000        0.00000008
      54         -1.773665        1.000000        0.00000000        0.00000006
      55         -1.772725        1.000000        0.00000000        0.00000005
      56         -1.772546        1.000000        0.00000000        0.00000004
      57         -1.772041        1.000000        0.00000000        0.00000012
      58         -1.771662        1.000000        0.00000001        0.00000068
      59         -1.771364        1.000000        0.00000000        0.00000026
      60         -1.770813        1.000000        0.00000001        0.00000149
      61         -1.770640        1.000000        0.00000000        0.00000009
      62         -1.770449        1.000000        0.00000008        0.00000139
      63         -1.770188        1.000000        0.00000011        0.00000048
      64         -1.770126        1.000000        0.00000000        0.00000008
      65         -1.769991        1.000000        0.00000003        0.00000013
      66         -1.769845        1.000000        0.00000000        0.00000026
      67         -1.769763        1.000000        0.00000019        0.00000018
      68         -1.769661        1.000000        0.00000000        0.00000014
      69         -1.769465        1.000000        0.00000002        0.00000051
      70         -1.769351        1.000000        0.00000000        0.00000024
      71         -1.769328        1.000000        0.00000000        0.00000004
      72         -1.769216        1.000000        0.00000002        0.00000020
      73         -1.769129        1.000000        0.00000001        0.00000031
      74         -1.769070        1.000000        0.00000001        0.00000002
      75         -1.768941        1.000000        0.00000000        0.00000001
      76         -1.768822        1.000000        0.00000003        0.00000044
      77         -1.768707        1.000000        0.00000004        0.00000002
      78         -1.768585        1.000000        0.00000001        0.00000012
      79         -1.768439        1.000000        0.00000013        0.00000056
      80         -1.768329        1.000000        0.00000002        0.00000001
      81         -1.768089        1.000000        0.00000002        0.00000080
      82         -1.767883        1.000000        0.00000000        0.00000030
      83         -1.767662        1.000000        0.00000001        0.00000009
      84         -1.767495        1.000000        0.00000002        0.00000015
      85         -1.767311        1.000000        0.00000015        0.00000065
      86         -1.767266        1.000000        0.00000015        0.00000058
      87         -1.767060        1.000000        0.00000000        0.00000020
      88         -1.767025        1.000000        0.00000015        0.00000037
      89         -1.766872        1.000000        0.00000002        0.00000035
      90         -1.766524        1.000000        0.00000000        0.00000008
      91         -1.766405        1.000000        0.00000000        0.00000001
      92         -1.766254        1.000000        0.00000017        0.00000036
      93         -1.766123        1.000000        0.00000002        0.00000012
      94         -1.765857        1.000000        0.00000008        0.00000014
      95         -1.765515        1.000000        0.00000001        0.00000001
      96         -1.765181        1.000000        0.00000001        0.00000015
      97         -1.765105        1.000000        0.00000000        0.00000018
      98         -1.764967        1.000000        0.00000000        0.00000006
      99         -1.764710        1.000000        0.00000002        0.00000028
     100         -1.764440        1.000000        0.00000010        0.00000027
     101         -1.764248        1.000000        0.00000001        0.00000026
     102         -1.763945        1.000000        0.00000005        0.00000076
     103         -1.763804        1.000000        0.00000029        0.00000048
     104         -1.763351        1.000000        0.00000002        0.00000004
     105         -1.763205        1.000000        0.00000006        0.00000005
     106         -1.763107        1.000000        0.00000000        0.00000014
     107         -1.762531        1.000000        0.00000001        0.00000008
     108         -1.762343        1.000000        0.00000015        0.00000052
     109         -1.761453        1.000000        0.00000006        0.00000019
     110         -1.760969        1.000000        0.00000001        0.00000009
     111         -1.760481        1.000000        0.00000001        0.00000012
     112         -1.760009        1.000000        0.00000001        0.00000005
     113         -1.759531        1.000000        0.00000001        0.00000001
     114         -1.759105        1.000000        0.00000002        0.00000034
     115         -1.758777        1.000000        0.00000000        0.00000000
     116         -1.757462        1.000000        0.00000000        0.00000000
     117         -1.756221        1.000000        0.00000000        0.00000002
     118         -1.755333        1.000000        0.00000000        0.00000000
     119         -1.754385        1.000000        0.00000000        0.00000002
     120         -1.752742        1.000000        0.00000000        0.00000002
     121         -1.131181        1.000000        0.00000688        0.00000880
     122         -1.128658        1.000000        0.00000385        0.00000647
     123         -1.128000        1.000000        0.00000915        0.00000868
     124         -1.126427        1.000000        0.00000185        0.00000260
     125         -1.120469        1.000000        0.00005895        0.00006197
     126         -1.119202        1.000000        0.00009461        0.00008865
     127         -1.117081        1.000000        0.00011061        0.00009999
     128         -1.116156        1.000000        0.00068323        0.00050267
     129         -1.115054        1.000000        0.00000064        0.00004053
     130         -1.111818        1.000000        0.00018551        0.00015609
     131         -1.111610        1.000000        0.00006446        0.00004066
     132         -1.110976        1.000000        0.00002755        0.00001146
     133         -1.109888        1.000000        0.00000178        0.00000845
     134         -1.108601        1.000000        0.00003148        0.00003826
     135         -1.108036        1.000000        0.00001756        0.00003230
     136         -1.107349        1.000000        0.00001844        0.00002346
     137         -1.106797        1.000000        0.00003802        0.00002673
     138         -1.106077        1.000000        0.00000118        0.00002624
     139         -1.104162        1.000000        0.00014779        0.00017741
     140         -1.102892        1.000000        0.00020742        0.00019846
     141         -1.102196        1.000000        0.00016192        0.00006867
     142         -1.101581        1.000000        0.00001888        0.00002268
     143         -1.101215        1.000000        0.00001018        0.00001050
     144         -1.099602        1.000000        0.00035002        0.00023440
     145         -1.098107        1.000000        0.00159369        0.00090142
     146         -1.097450        1.000000        0.00145116        0.00080140
     147         -1.097046        1.000000        0.00030232        0.00032194
     148         -1.095795        1.000000        0.00003227        0.00004355
     149         -1.095192        1.000000        0.00156050        0.00116996
     150         -1.093515        1.000000        0.00026343        0.00010745
     151         -1.093123        1.000000        0.00915692        0.00458316
     152         -1.092614        1.000000        0.00001980        0.00003237
     153         -1.091821        1.000000        0.00013879        0.00005561
     154         -1.090761        1.000000        0.00035084        0.00021161
     155         -1.090597        1.000000        0.06278629        0.03072821
     156         -1.089544        1.000000        0.03306997        0.01569340
     157         -1.088154        1.000000        0.02765648        0.01160048
     158         -1.086960        1.000000        0.00237085        0.00090384
     159         -1.086718        1.000000        0.00159514        0.00067316
     160         -1.085525        1.000000        0.00086667        0.00034015
     161         -1.084219        1.000000        0.00000138        0.00000910
     162         -1.082734        1.000000        0.00007589        0.00001276
     163         -1.082381        1.000000        0.00006679        0.00004772
     164         -1.080807        1.000000        0.00001597        0.00000971
     165         -1.080293        1.000000        0.00056478        0.00021258
     166         -1.079453        1.000000        0.00080978        0.00042264
     167         -1.078246        1.000000        0.00015985        0.00002582
     168         -1.077774        1.000000        0.00002622        0.00001496
     169         -1.077143        1.000000        0.00021945        0.00009811
     170         -1.076426        1.000000        0.00017102        0.00004911
     171         -1.076145        1.000000        0.00052595        0.00019099
     172         -1.074526        1.000000        0.00007984        0.00003138
     173         -1.074368        1.000000        0.00007499        0.00000735
     174         -1.073652        1.000000        0.00003985        0.00010561
     175         -1.072808        1.000000        0.00000552        0.00007299
     176         -1.072152        1.000000        0.00003321        0.00001011
     177         -1.071192        1.000000        0.00000174        0.00000892
     178         -1.070444        1.000000        0.00030474        0.00030715
     179         -1.070141        1.000000        0.00061571        0.00067252
     180         -1.069416        1.000000        0.00016942        0.00010471
     181         -1.069179        1.000000        0.00021591        0.00019540
     182         -1.067610        1.000000        0.00081040        0.00043731
     183         -1.066240        1.000000        0.00011419        0.00008447
     184         -1.065124        1.000000        0.00031041        0.00008841
     185         -1.064565        1.000000        0.00036320        0.00025947
     186         -1.063575        1.000000        0.00009144        0.00002140
     187         -1.062901        1.000000        0.00002102        0.00011615
     188         -1.062274        1.000000        0.00020084        0.00016979
     189         -1.061481        1.000000        0.00022462        0.00010245
     190         -1.061312        1.000000        0.00024094        0.00004669
     191         -1.060592        1.000000        0.00000120        0.00000558
     192         -1.059297        1.000000        0.00001053        0.00000218
     193         -1.058643        1.000000        0.00007490        0.00001000
     194         -1.058262        1.000000        0.00162521        0.00081481
     195         -1.057127        1.000000        0.00027106        0.00003695
     196         -1.056224        1.000000        0.00081677        0.00024683
     197         -1.056050        1.000000        0.00017849        0.00007977
     198         -1.054881        1.000000        0.00003926        0.00000462
     199         -1.054669        1.000000        0.00001085        0.00000074
     200         -1.053605        1.000000        0.00000466        0.00000364
     201         -1.053457        1.000000        0.00007375        0.00002160
     202         -1.052589        1.000000        0.00005424        0.00001759
     203         -1.052089        1.000000        0.00057132        0.00011027
     204         -1.051299        1.000000        0.00028354        0.00004023
     205         -1.050676        1.000000        0.00055277        0.00011445
     206         -1.050307        1.000000        0.00016830        0.00003685
     207         -1.049921        1.000000        0.00060892        0.00009417
     208         -1.049485        1.000000        0.00009425        0.00000785
     209         -1.049126        1.000000        0.00001317        0.00000496
     210         -1.048445        1.000000        0.00001941        0.00014653
     211         -1.048201        1.000000        0.00001808        0.00008978
     212         -1.047911        1.000000        0.00001445        0.00001489
     213         -1.047620        1.000000        0.00005190        0.00002507
     214         -1.046931        1.000000        0.00014756        0.00001597
     215         -1.046733        1.000000        0.00007108        0.00004408
     216         -1.046634        1.000000        0.00000065        0.00000737
     217         -1.045930        1.000000        0.00000720        0.00002275
     218         -1.045069        1.000000        0.00003571        0.00007922
     219         -1.044350        1.000000        0.00000090        0.00000233
     220         -1.043623        1.000000        0.00007066        0.00019021
     221         -1.043421        1.000000        0.00001833        0.00020684
     222         -1.042778        1.000000        0.00000097        0.00000761
     223         -1.042701        1.000000        0.00000472        0.00000276
     224         -1.042424        1.000000        0.00003446        0.00005723
     225         -1.041682        1.000000        0.00003270        0.00029652
     226         -1.041498        1.000000        0.00014162        0.00001972
     227         -1.040837        1.000000        0.00005791        0.00059928
     228         -1.040496        1.000000        0.00002305        0.00005072
     229         -1.040151        1.000000        0.00000956        0.00002329
     230         -1.039686        1.000000        0.00000464        0.00003859
     231         -1.038961        1.000000        0.00000498        0.00003856
     232         -1.038553        1.000000        0.00001781        0.00001786
     233         -1.038476        1.000000        0.00000552        0.00002777
     234         -1.038152        1.000000        0.00000591        0.00000526
     235         -1.038041        1.000000        0.00000004        0.00000081
     236         -1.036855        1.000000        0.00000059        0.00000069
     237         -1.036488        1.000000        0.00001041        0.00002260
     238         -1.036186        1.000000        0.00000020        0.00000368
     239         -1.036068        1.000000        0.00001076        0.00000486
     240         -1.035757        1.000000        0.00001712        0.00017258
     241         -1.035291        1.000000        0.00001554        0.00015963
     242         -1.035048        1.000000        0.00000412        0.00000565
     243         -1.035000        1.000000        0.00004545        0.00000910
     244         -1.034454        1.000000        0.00000015        0.00000372
     245         -1.034219        1.000000        0.00004379        0.00000573
     246         -1.033874        1.000000        0.00000522        0.00000540
     247         -1.033507        1.000000        0.00000358        0.00000969
     248         -1.033219        1.000000        0.00000040        0.00001094
     249         -1.033056        1.000000        0.00000348        0.00001380
     250         -1.032307        1.000000        0.00007233        0.00008694
     251         -1.031324        1.000000        0.00004042        0.00013814
     252         -1.031144        1.000000        0.00019095        0.00003166
     253         -1.030643        1.000000        0.00052457        0.00025059
     254         -1.030284        1.000000        0.00004926        0.00005934
     255         -1.030062        1.000000        0.00006742        0.00001698
     256         -1.029818        1.000000        0.00004999        0.00003691
     257         -1.028552        1.000000        0.00006134        0.00002443
     258         -1.027578        1.000000        0.00003819        0.00003223
     259         -1.027121        1.000000        0.00006775        0.00001208
     260         -1.026880        1.000000        0.00050620        0.00011096
     261         -1.026226        1.000000        0.00019386        0.00005977
     262         -1.025765        1.000000        0.00008130        0.00003222
     263         -1.025299        1.000000        0.00000938        0.00000979
     264         -1.025158        1.000000        0.00017332        0.00045890
     265         -1.025007        1.000000        0.00052592        0.00023024
     266         -1.024422        1.000000        0.00010586        0.00010204
     267         -1.023793        1.000000        0.00006155        0.00001972
     268         -1.023594        1.000000        0.00071563        0.00379914
     269         -1.023069        1.000000        0.00122447        0.00041395
     270         -1.022603        1.000000        0.00050361        0.00020251
     271         -1.022074        1.000000        0.00025080        0.00009086
     272         -1.021695        1.000000        0.00013361        0.00002447
     273         -1.021372        1.000000        0.00000049        0.00000171
     274         -1.021076        1.000000        0.00006932        0.00019064
     275         -1.019492        1.000000        0.00000239        0.00000168
     276         -1.018003        1.000000        0.00001048        0.00000422
     277         -1.016408        1.000000        0.00000021        0.00000138
     278         -1.016278        1.000000        0.00001631        0.00000747
     279         -1.015338        1.000000        0.00000005        0.00000007
     280         -1.013851        1.000000        0.00000060        0.00000024
     281         -1.010223        1.000000        0.00000700        0.00000174
     282         -1.009666        1.000000        0.00000000        0.00000000
     283         -1.007726        1.000000        0.00007014        0.00001225
     284         -1.007300        1.000000        0.00000851        0.00000154
     285         -1.006916        1.000000        0.00000003        0.00000001
     286         -0.889442        1.000000        0.00000469        0.00024696
     287         -0.869424        1.000000        0.00001797        0.00037294
     288         -0.867225        1.000000        0.00000362        0.00010986
     289         -0.864755        1.000000        0.00001410        0.00026823
     290         -0.860947        1.000000        0.00000482        0.00014227
     291         -0.846899        1.000000        0.00003408        0.00038797
     292         -0.844423        1.000000        0.00000473        0.00007485
     293         -0.843782        1.000000        0.00000813        0.00011877
     294         -0.840445        1.000000        0.00000824        0.00015533
     295         -0.821748        1.000000        0.00003428        0.00018114
     296         -0.818927        1.000000        0.00000004        0.00002061
     297         -0.814033        1.000000        0.00001634        0.00024073
     298         -0.808071        1.000000        0.00007212        0.00051556
     299         -0.807076        1.000000        0.00000172        0.00004508
     300         -0.806003        1.000000        0.00000718        0.00004505
     301         -0.805433        1.000000        0.00001133        0.00010301
     302         -0.803208        1.000000        0.00000085        0.00003055
     303         -0.802271        1.000000        0.00000853        0.00015443
     304         -0.801014        1.000000        0.00000519        0.00003207
     305         -0.800419        1.000000        0.00000096        0.00001521
     306         -0.800163        1.000000        0.00000618        0.00007984
     307         -0.798966        1.000000        0.00001183        0.00012054
     308         -0.796270        1.000000        0.00000143        0.00000838
     309         -0.795746        1.000000        0.00006278        0.00042071
     310         -0.794333        1.000000        0.00000599        0.00011328
     311         -0.792293        1.000000        0.00000094        0.00003092
     312         -0.791548        1.000000        0.00002314        0.00014010
     313         -0.790603        1.000000        0.00001481        0.00007584
     314         -0.790424        1.000000        0.00000646        0.00004024
     315         -0.789930        1.000000        0.00000082        0.00003471
     316         -0.788450        1.000000        0.00001496        0.00007424
     317         -0.787526        1.000000        0.00000254        0.00006789
     318         -0.786788        1.000000        0.00000093        0.00001162
     319         -0.781836        1.000000        0.00001041        0.00005044
     320         -0.780998        1.000000        0.00003213        0.00011364
     321         -0.780477        1.000000        0.00000033        0.00000588
     322         -0.779060        1.000000        0.00000193        0.00002999
     323         -0.778943        1.000000        0.00000174        0.00001473
     324         -0.777233        1.000000        0.00000049        0.00000318
     325         -0.775897        1.000000        0.00002406        0.00007715
     326         -0.774887        1.000000        0.00000400        0.00000566
     327         -0.773671        1.000000        0.00000262        0.00001171
     328         -0.773422        1.000000        0.00000815        0.00003855
     329         -0.772414        1.000000        0.00000783        0.00004831
     330         -0.771266        1.000000        0.00000275        0.00001899
     331         -0.770604        1.000000        0.00002545        0.00008924
     332         -0.769886        1.000000        0.00000032        0.00001304
     333         -0.769439        1.000000        0.00000028        0.00000759
     334         -0.769009        1.000000        0.00001767        0.00006858
     335         -0.767483        1.000000        0.00000128        0.00000465
     336         -0.766717        1.000000        0.00000038        0.00001543
     337         -0.765490        1.000000        0.00000032        0.00000415
     338         -0.763700        1.000000        0.00000417        0.00002355
     339         -0.762625        1.000000        0.00000727        0.00002745
     340         -0.761653        1.000000        0.00000223        0.00000716
     341         -0.761196        1.000000        0.00000188        0.00000675
     342         -0.759265        1.000000        0.00000256        0.00001171
     343         -0.758410        1.000000        0.00000412        0.00001461
     344         -0.755260        1.000000        0.00000021        0.00000109
     345         -0.754586        1.000000        0.00000005        0.00000001
     346         -0.703685        1.000000        0.00000449        0.00000031
     347         -0.693847        1.000000        0.00000739        0.00000026
     348         -0.690060        1.000000        0.00000407        0.00000142
     349         -0.688902        1.000000        0.00000411        0.00000182
     350         -0.684111        1.000000        0.00002515        0.00000429
     351         -0.681092        1.000000        0.00000628        0.00000118
     352         -0.678905        1.000000        0.00002510        0.00000045
     353         -0.676982        1.000000        0.00000099        0.00000461
     354         -0.673929        1.000000        0.00000766        0.00000585
     355         -0.673106        1.000000        0.00000859        0.00000068
     356         -0.670728        1.000000        0.00004177        0.00000647
     357         -0.670092        1.000000        0.00000475        0.00000240
     358         -0.669168        1.000000        0.00000882        0.00000541
     359         -0.667801        1.000000        0.00003683        0.00000211
     360         -0.665884        1.000000        0.00002184        0.00000160
     361         -0.664702        1.000000        0.00001000        0.00002447
     362         -0.662263        1.000000        0.00000096        0.00000008
     363         -0.660875        1.000000        0.00003416        0.00000897
     364         -0.658191        1.000000        0.00000028        0.00000276
     365         -0.657373        1.000000        0.00000019        0.00000162
     366         -0.655967        1.000000        0.00000076        0.00000691
     367         -0.655536        1.000000        0.00009544        0.00002344
     368         -0.653752        1.000000        0.00000114        0.00002002
     369         -0.651127        1.000000        0.00000079        0.00000486
     370         -0.648938        1.000000        0.00006842        0.00000586
     371         -0.647875        1.000000        0.00003028        0.00000367
     372         -0.644925        1.000000        0.00002816        0.00000025
     373         -0.644581        1.000000        0.00001128        0.00000265
     374         -0.641910        1.000000        0.00004453        0.00000317
     375         -0.641212        1.000000        0.00000523        0.00000055
     376         -0.639876        1.000000        0.00000090        0.00000267
     377         -0.637901        1.000000        0.00004671        0.00006719