# Projected DOS for list 190 of 1 atoms, at iteration step i = 0, E(Fermi) =    -0.245567 a.u.
#     MO Eigenvalue [a.u.]      Occupation                 s                 p                 d
       1         -3.122063        1.000000        0.00000000        0.00000000        0.00000000
       2         -3.121278        1.000000        0.00000000        0.00000000        0.00000000
       3         -3.121021        1.000000        0.00000000        0.00000000        0.00000000
       4         -3.120578        1.000000        0.00000000        0.00000000        0.00000000
       5         -3.120271        1.000000        0.00000000        0.00000000        0.00000000
       6         -3.119857        1.000000        0.00000000        0.00000000        0.00000000
       7         -3.119652        1.000000        0.00000000        0.00000000        0.00000000
       8         -3.119624        1.000000        0.00000000        0.00000000        0.00000000
       9         -3.119219        1.000000        0.00000000        0.00000000        0.00000000
      10         -3.119023        1.000000        0.00000000        0.00000000        0.00000000
      11         -3.118913        1.000000        0.00000000        0.00000000        0.00000000
      12         -3.118874        1.000000        0.00000000        0.00000000        0.00000000
      13         -3.118317        1.000000        0.00000000        0.00000000        0.00000000
      14         -3.118249        1.000000        0.00000000        0.00000000        0.00000000
      15         -3.117895        1.000000        0.00000000        0.00000000        0.00000000
      16         -3.117383        1.000000        0.00000000        0.00000000        0.00000000
      17         -3.117165        1.000000        0.00000000        0.00000000        0.00000000
      18         -3.116815        1.000000        0.00000000        0.00000000        0.00000000
      19         -3.116436        1.000000        0.00000000        0.00000000        0.00000000
      20         -3.116021        1.000000        0.00000000        0.00000000        0.00000000
      21         -3.115852        1.000000        0.00000000        0.00000000        0.00000000
      22         -3.115668        1.000000        0.00000000        0.00000000        0.00000000
      23         -3.115368        1.000000        0.00000000        0.00000000        0.00000000
      24         -3.115339        1.000000        0.00000000        0.00000000        0.00000000
      25         -3.115041        1.000000        0.00000000        0.00000000        0.00000000
      26         -3.114366        1.000000        0.00000000        0.00000000        0.00000000
      27         -3.113951        1.000000        0.00000000        0.00000000        0.00000000
      28         -3.113764        1.000000        0.00000000        0.00000000        0.00000000
      29         -3.112534        1.000000        0.00000000        0.00000000        0.00000000
      30         -3.111679        1.000000        0.00000000        0.00000000        0.00000000
      31         -1.784233        1.000000        0.00000000        0.00000000        0.00000000
      32         -1.782870        1.000000        0.00000000        0.00000000        0.00000000
      33         -1.782324        1.000000        0.00000000        0.00000000        0.00000000
      34         -1.782130        1.000000        0.00000000        0.00000000        0.00000000
      35         -1.781736        1.000000        0.00000000        0.00000000        0.00000000
      36         -1.781230        1.000000        0.00000000        0.00000000        0.00000000
      37         -1.780847        1.000000        0.00000000        0.00000000        0.00000000
      38         -1.780487        1.000000        0.00000000        0.00000000        0.00000000
      39         -1.780184        1.000000        0.00000000        0.00000000        0.00000000
      40         -1.779550        1.000000        0.00000000        0.00000000        0.00000000
      41         -1.779259        1.000000        0.00000000        0.00000000        0.00000000
      42         -1.778921        1.000000        0.00000000        0.00000000        0.00000000
      43         -1.778390        1.000000        0.00000000        0.00000000        0.00000000
      44         -1.778140        1.000000        0.00000000        0.00000000        0.00000000
      45         -1.777912        1.000000        0.00000000        0.00000000        0.00000000
      46         -1.777514        1.000000        0.00000000        0.00000000        0.00000000
      47         -1.777362        1.000000        0.00000000        0.00000000        0.00000000
      48         -1.776787        1.000000        0.00000000        0.00000000        0.00000000
      49         -1.776537        1.000000        0.00000000        0.00000000        0.00000000
      50         -1.776457        1.000000        0.00000000        0.00000000        0.00000000
      51         -1.776029        1.000000        0.00000000        0.00000000        0.00000000
      52         -1.774038        1.000000        0.00000000        0.00000000        0.00000000
      53         -1.773797        1.000000        0.00000000        0.00000000        0.00000000
      54         -1.773665        1.000000        0.00000000        0.00000000        0.00000000
      55         -1.772725        1.000000        0.00000000        0.00000000        0.00000000
      56         -1.772546        1.000000        0.00000000        0.00000000        0.00000000
      57         -1.772041        1.000000        0.00000000        0.00000000        0.00000000
      58         -1.771662        1.000000        0.00000000        0.00000000        0.00000000
      59         -1.771364        1.000000        0.00000000        0.00000000        0.00000000
      60         -1.770813        1.000000        0.00000000        0.00000000        0.00000000
      61         -1.770640        1.000000        0.00000000        0.00000000        0.00000000
      62         -1.770449        1.000000        0.00000000        0.00000000        0.00000000
      63         -1.770188        1.000000        0.00000000        0.00000000        0.00000000
      64         -1.770126        1.000000        0.00000000        0.00000000        0.00000000
      65         -1.769991        1.000000        0.00000000        0.00000000        0.00000000
      66         -1.769845        1.000000        0.00000000        0.00000000        0.00000000
      67         -1.769763        1.000000        0.00000000        0.00000000        0.00000000
      68         -1.769661        1.000000        0.00000000        0.00000000        0.00000000
      69         -1.769465        1.000000        0.00000000        0.00000000        0.00000000
      70         -1.769351        1.000000        0.00000000        0.00000000        0.00000000
      71         -1.769328        1.000000        0.00000000        0.00000000        0.00000000
      72         -1.769216        1.000000        0.00000000        0.00000000        0.00000000
      73         -1.769129        1.000000        0.00000000        0.00000000        0.00000000
      74         -1.769070        1.000000        0.00000000        0.00000000        0.00000000
      75         -1.768941        1.000000        0.00000000        0.00000000        0.00000000
      76         -1.768822        1.000000        0.00000000        0.00000000        0.00000000
      77         -1.768707        1.000000        0.00000000        0.00000000        0.00000000
      78         -1.768585        1.000000        0.00000000        0.00000000        0.00000000
      79         -1.768439        1.000000        0.00000000        0.00000000        0.00000000
      80         -1.768329        1.000000        0.00000000        0.00000000        0.00000000
      81         -1.768089        1.000000        0.00000000        0.00000000        0.00000000
      82         -1.767883        1.000000        0.00000000        0.00000000        0.00000000
      83         -1.767662        1.000000        0.00000000        0.00000000        0.00000000
      84         -1.767495        1.000000        0.00000000        0.00000000        0.00000000
      85         -1.767311        1.000000        0.00000000        0.00000000        0.00000000
      86         -1.767266        1.000000        0.00000000        0.00000000        0.00000000
      87         -1.767060        1.000000        0.00000000        0.00000000        0.00000000
      88         -1.767025        1.000000        0.00000000        0.00000000        0.00000000
      89         -1.766872        1.000000        0.00000000        0.00000000        0.00000000
      90         -1.766524        1.000000        0.00000000        0.00000000        0.00000000
      91         -1.766405        1.000000        0.00000000        0.00000000        0.00000000
      92         -1.766254        1.000000        0.00000000        0.00000000        0.00000000
      93         -1.766123        1.000000        0.00000000        0.00000000        0.00000000
      94         -1.765857        1.000000        0.00000000        0.00000000        0.00000000
      95         -1.765515        1.000000        0.00000000        0.00000000        0.00000000
      96         -1.765181        1.000000        0.00000000        0.00000000        0.00000000
      97         -1.765105        1.000000        0.00000000        0.00000000        0.00000000
      98         -1.764967        1.000000        0.00000000        0.00000000        0.00000000
      99         -1.764710        1.000000        0.00000000        0.00000000        0.00000000
     100         -1.764440        1.000000        0.00000000        0.00000000        0.00000000
     101         -1.764248        1.000000        0.00000000        0.00000000        0.00000000
     102         -1.763945        1.000000        0.00000000        0.00000000        0.00000000
     103         -1.763804        1.000000        0.00000000        0.00000000        0.00000000
     104         -1.763351        1.000000        0.00000000        0.00000000        0.00000000
     105         -1.763205        1.000000        0.00000000        0.00000000        0.00000000
     106         -1.763107        1.000000        0.00000000        0.00000000        0.00000000
     107         -1.762531        1.000000        0.00000000        0.00000000        0.00000000
     108         -1.762343        1.000000        0.00000000        0.00000000        0.00000000
     109         -1.761453        1.000000        0.00000000        0.00000000        0.00000000
     110         -1.760969        1.000000        0.00000000        0.00000000        0.00000000
     111         -1.760481        1.000000        0.00000000        0.00000000        0.00000000
     112         -1.760009        1.000000        0.00000000        0.00000000        0.00000000
     113         -1.759531        1.000000        0.00000000        0.00000000        0.00000000
     114         -1.759105        1.000000        0.00000000        0.00000000        0.00000000
     115         -1.758777        1.000000        0.00000000        0.00000000        0.00000000
     116         -1.757462        1.000000        0.00000000        0.00000000        0.00000000
     117         -1.756221        1.000000        0.00000000        0.00000000        0.00000000
     118         -1.755333        1.000000        0.00000000        0.00000000        0.00000000
     119         -1.754385        1.000000        0.00000000        0.00000000        0.00000000
     120         -1.752742        1.000000        0.00000000        0.00000000        0.00000000
     121         -1.131181        1.000000        0.00293780        0.00016829        0.00007183
     122         -1.128658        1.000000        0.00368150        0.00021191        0.00009037
     123         -1.128000        1.000000        0.00002141        0.00007272        0.00001123
     124         -1.126427        1.000000        0.00000420        0.00000664        0.00000109
     125         -1.120469        1.000000        0.00131180        0.00008234        0.00001921
     126         -1.119202        1.000000        0.00025267        0.00002857        0.00002278
     127         -1.117081        1.000000        0.01998725        0.00103862        0.00032875
     128         -1.116156        1.000000        0.00756285        0.00088103        0.00013307
     129         -1.115054        1.000000        0.00602725        0.00016494        0.00008663
     130         -1.111818        1.000000        0.00129046        0.00003239        0.00002902
     131         -1.111610        1.000000        0.00022341        0.00007108        0.00000592
     132         -1.110976        1.000000        0.04250640        0.00101625        0.00055913
     133         -1.109888        1.000000        0.01389564        0.00055486        0.00014313
     134         -1.108601        1.000000        0.00910110        0.00020894        0.00011329
     135         -1.108036        1.000000        0.01527197        0.00041065        0.00016876
     136         -1.107349        1.000000        0.01537427        0.00036823        0.00016203
     137         -1.106797        1.000000        0.00050102        0.00001927        0.00001029
     138         -1.106077        1.000000        0.00058348        0.00009821        0.00000810
     139         -1.104162        1.000000        0.00151505        0.00003891        0.00002182
     140         -1.102892        1.000000        0.01186190        0.00027295        0.00009359
     141         -1.102196        1.000000        0.00137982        0.00130081        0.00006526
     142         -1.101581        1.000000        0.01184839        0.00100300        0.00011962
     143         -1.101215        1.000000        0.00630436        0.00083695        0.00010518
     144         -1.099602        1.000000        0.00157563        0.00003569        0.00001735
     145         -1.098107        1.000000        0.00464315        0.00065430        0.00011649
     146         -1.097450        1.000000        0.00019933        0.00003057        0.00002048
     147         -1.097046        1.000000        0.00071863        0.00011208        0.00001209
     148         -1.095795        1.000000        0.00456346        0.00049776        0.00006583
     149         -1.095192        1.000000        0.00064066        0.00004628        0.00000733
     150         -1.093515        1.000000        0.00644335        0.00011375        0.00005681
     151         -1.093123        1.000000        0.00108582        0.00004249        0.00002057
     152         -1.092614        1.000000        0.00733720        0.00021677        0.00005036
     153         -1.091821        1.000000        0.00003515        0.00218225        0.00006293
     154         -1.090761        1.000000        0.00000021        0.00063697        0.00004709
     155         -1.090597        1.000000        0.00215721        0.00006129        0.00002215
     156         -1.089544        1.000000        0.00086706        0.00013672        0.00000401
     157         -1.088154        1.000000        0.00111386        0.00002416        0.00001887
     158         -1.086960        1.000000        0.00040330        0.00003534        0.00000065
     159         -1.086718        1.000000        0.00275574        0.00008404        0.00002912
     160         -1.085525        1.000000        0.00779616        0.00048753        0.00003784
     161         -1.084219        1.000000        0.00391241        0.00092041        0.00006687
     162         -1.082734        1.000000        0.00189068        0.00072467        0.00002007
     163         -1.082381        1.000000        0.00231329        0.00024402        0.00003406
     164         -1.080807        1.000000        0.00203981        0.00012760        0.00000965
     165         -1.080293        1.000000        0.00096125        0.00002770        0.00001981
     166         -1.079453        1.000000        0.00196211        0.00023335        0.00002971
     167         -1.078246        1.000000        0.00540545        0.00007374        0.00002199
     168         -1.077774        1.000000        0.00319923        0.00037023        0.00006658
     169         -1.077143        1.000000        0.00090091        0.00006102        0.00003513
     170         -1.076426        1.000000        0.00039835        0.00051925        0.00000339
     171         -1.076145        1.000000        0.00819358        0.00016832        0.00002661
     172         -1.074526        1.000000        0.00134808        0.00008180        0.00001528
     173         -1.074368        1.000000        0.00172964        0.00034392        0.00003075
     174         -1.073652        1.000000        0.00187842        0.00003779        0.00001715
     175         -1.072808        1.000000        0.00049082        0.00109081        0.00005087
     176         -1.072152        1.000000        0.01142458        0.00023652        0.00002499
     177         -1.071192        1.000000        0.00000740        0.00006806        0.00001196
     178         -1.070444        1.000000        0.00058311        0.00006566        0.00000634
     179         -1.070141        1.000000        0.00325019        0.00013505        0.00002323
     180         -1.069416        1.000000        0.00158293        0.00022963        0.00002376
     181         -1.069179        1.000000        0.00862131        0.00019086        0.00004263
     182         -1.067610        1.000000        0.00630348        0.00005822        0.00001491
     183         -1.066240        1.000000        0.00750392        0.00066568        0.00002502
     184         -1.065124        1.000000        0.01228790        0.00019384        0.00004040
     185         -1.064565        1.000000        0.00505769        0.00011510        0.00006427
     186         -1.063575        1.000000        0.01257593        0.00043055        0.00004027
     187         -1.062901        1.000000        0.00007478        0.00000098        0.00000279
     188         -1.062274        1.000000        0.00947884        0.00024778        0.00002205
     189         -1.061481        1.000000        0.01157632        0.00083059        0.00008329
     190         -1.061312        1.000000        0.00159943        0.00028865        0.00002321
     191         -1.060592        1.000000        0.00027462        0.00021144        0.00000337
     192         -1.059297        1.000000        0.00011855        0.00010628        0.00000183
     193         -1.058643        1.000000        0.00071755        0.00024201        0.00001600
     194         -1.058262        1.000000        0.00029619        0.00017587        0.00001797
     195         -1.057127        1.000000        0.01370573        0.00026863        0.00004367
     196         -1.056224        1.000000        0.00010519        0.00009981        0.00000596
     197         -1.056050        1.000000        0.00356217        0.00007539        0.00000561
     198         -1.054881        1.000000        0.00030434        0.00000737        0.00000649
     199         -1.054669        1.000000        0.00194094        0.00021833        0.00001265
     200         -1.053605        1.000000        0.00413966        0.00004880        0.00001567
     201         -1.053457        1.000000        0.00378116        0.00005901        0.00001236
     202         -1.052589        1.000000        0.00495284        0.00014921        0.00009455
     203         -1.052089        1.000000        0.00119005        0.00023546        0.00004630
     204         -1.051299        1.000000        0.00099060        0.00019627        0.00002547
     205         -1.050676        1.000000        0.01103755        0.00010501        0.00001179
     206         -1.050307        1.000000        0.00000042        0.00001373        0.00000781
     207         -1.049921        1.000000        0.00119391        0.00007734        0.00000686
     208         -1.049485        1.000000        0.00035261        0.00004677        0.00001027
     209         -1.049126        1.000000        0.00024846        0.00002580        0.00002765
     210         -1.048445        1.000000        0.01383658        0.00018192        0.00003849
     211         -1.048201        1.000000        0.00445048        0.00016974        0.00004896
     212         -1.047911        1.000000        0.00017081        0.00001439        0.00000572
     213         -1.047620        1.000000        0.00442613        0.00007483        0.00004563
     214         -1.046931        1.000000        0.00034085        0.00006757        0.00009839
     215         -1.046733        1.000000        0.00168486        0.00007480        0.00007975
     216         -1.046634        1.000000        0.01106452        0.00013582        0.00000839
     217         -1.045930        1.000000        0.03223929        0.00031582        0.00000974
     218         -1.045069        1.000000        0.02936334        0.00035178        0.00000769
     219         -1.044350        1.000000        0.00004875        0.00002176        0.00000139
     220         -1.043623        1.000000        0.00022536        0.00000482        0.00000609
     221         -1.043421        1.000000        0.00015071        0.00001150        0.00001263
     222         -1.042778        1.000000        0.00214179        0.00006980        0.00001179
     223         -1.042701        1.000000        0.00272834        0.00016785        0.00006756
     224         -1.042424        1.000000        0.00013973        0.00008293        0.00001029
     225         -1.041682        1.000000        0.00021880        0.00002976        0.00001974
     226         -1.041498        1.000000        0.00234354        0.00012111        0.00010071
     227         -1.040837        1.000000        0.00049671        0.00000746        0.00000992
     228         -1.040496        1.000000        0.00382206        0.00013029        0.00008446
     229         -1.040151        1.000000        0.00010460        0.00003380        0.00000854
     230         -1.039686        1.000000        0.00612629        0.00014859        0.00012140
     231         -1.038961        1.000000        0.00233964        0.00018807        0.00008132
     232         -1.038553        1.000000        0.00590659        0.00023267        0.00010347
     233         -1.038476        1.000000        0.00000055        0.00001479        0.00002422
     234         -1.038152        1.000000        0.00307490        0.00013834        0.00006075
     235         -1.038041        1.000000        0.00297075        0.00016050        0.00005390
     236         -1.036855        1.000000        0.00089203        0.00002581        0.00001933
     237         -1.036488        1.000000        0.00117360        0.00006681        0.00012007
     238         -1.036186        1.000000        0.00748958        0.00010646        0.00004624
     239         -1.036068        1.000000        0.00057303        0.00012984        0.00023322
     240         -1.035757        1.000000        0.00229271        0.00011975        0.00015605
     241         -1.035291        1.000000        0.00073022        0.00002518        0.00004409
     242         -1.035048        1.000000        0.00175666        0.00016446        0.00006608
     243         -1.035000        1.000000        0.00022795        0.00007038        0.00004239
     244         -1.034454        1.000000        0.00192809        0.00003946        0.00000903
     245         -1.034219        1.000000        0.00055326        0.00007461        0.00001908
     246         -1.033874        1.000000        0.00011057        0.00007297        0.00003352
     247         -1.033507        1.000000        0.00000009        0.00000627        0.00001058
     248         -1.033219        1.000000        0.00147799        0.00006489        0.00002005
     249         -1.033056        1.000000        0.00005776        0.00001600        0.00002465
     250         -1.032307        1.000000        0.00019552        0.00007724        0.00008882
     251         -1.031324        1.000000        0.00018294        0.00001798        0.00001813
     252         -1.031144        1.000000        0.00009236        0.00000341        0.00000303
     253         -1.030643        1.000000        0.00016561        0.00003506        0.00001976
     254         -1.030284        1.000000        0.00038801        0.00002525        0.00001011
     255         -1.030062        1.000000        0.00106555        0.00003997        0.00000547
     256         -1.029818        1.000000        0.00000377        0.00001144        0.00000581
     257         -1.028552        1.000000        0.00000614        0.00000094        0.00000154
     258         -1.027578        1.000000        0.00000098        0.00000118        0.00000048
     259         -1.027121        1.000000        0.00144641        0.00008305        0.00005328
     260         -1.026880        1.000000        0.00011282        0.00001004        0.00000666
     261         -1.026226        1.000000        0.00000541        0.00000336        0.00000637
     262         -1.025765        1.000000        0.00014345        0.00000766        0.00000591
     263         -1.025299        1.000000        0.00009114        0.00000436        0.00000315
     264         -1.025158        1.000000        0.00171677        0.00014063        0.00005952
     265         -1.025007        1.000000        0.00081199        0.00011606        0.00009636
     266         -1.024422        1.000000        0.00006934        0.00000413        0.00000088
     267         -1.023793        1.000000        0.00013687        0.00000912        0.00000154
     268         -1.023594        1.000000        0.00081728        0.00007406        0.00003651
     269         -1.023069        1.000000        0.00044616        0.00004458        0.00002197
     270         -1.022603        1.000000        0.00011595        0.00000694        0.00000249
     271         -1.022074        1.000000        0.00005749        0.00001116        0.00000585
     272         -1.021695        1.000000        0.00000007        0.00008841        0.00009319
     273         -1.021372        1.000000        0.00000262        0.00000179        0.00000241
     274         -1.021076        1.000000        0.00002873        0.00000689        0.00000391
     275         -1.019492        1.000000        0.00001302        0.00000222        0.00000240
     276         -1.018003        1.000000        0.00002142        0.00000013        0.00000055
     277         -1.016408        1.000000        0.00000361        0.00000040        0.00000049
     278         -1.016278        1.000000        0.00008027        0.00000096        0.00000167
     279         -1.015338        1.000000        0.00000062        0.00000017        0.00000033
     280         -1.013851        1.000000        0.00000029        0.00000001        0.00000013
     281         -1.010223        1.000000        0.00000267        0.00000312        0.00000129
     282         -1.009666        1.000000        0.00000026        0.00000017        0.00000007
     283         -1.007726        1.000000        0.00004529        0.00000475        0.00000200
     284         -1.007300        1.000000        0.00052122        0.00006615        0.00002291
     285         -1.006916        1.000000        0.00000597        0.00000051        0.00000012
     286         -0.889442        1.000000        0.00000000        0.00000000        0.00000000
     287         -0.869424        1.000000        0.00000000        0.00000000        0.00000000
     288         -0.867225        1.000000        0.00000000        0.00000000        0.00000000
     289         -0.864755        1.000000        0.00000000        0.00000000        0.00000000
     290         -0.860947        1.000000        0.00000000        0.00000000        0.00000000
     291         -0.846899        1.000000        0.00000000        0.00000000        0.00000000
     292         -0.844423        1.000000        0.00000000        0.00000000        0.00000000
     293         -0.843782        1.000000        0.00000000        0.00000000        0.00000000
     294         -0.840445        1.000000        0.00000000        0.00000000        0.00000000
     295         -0.821748        1.000000        0.00000000        0.00000000        0.00000000
     296         -0.818927        1.000000        0.00000000        0.00000000        0.00000000
     297         -0.814033        1.000000        0.00000000        0.00000000        0.00000000
     298         -0.808071        1.000000        0.00000000        0.00000000        0.00000000
     299         -0.807076        1.000000        0.00000000        0.00000000        0.00000000
     300         -0.806003        1.000000        0.00000000        0.00000000        0.00000000
     301         -0.805433        1.000000        0.00000000        0.00000000        0.00000000
     302         -0.803208        1.000000        0.00000000        0.00000000        0.00000000
     303         -0.802271        1.000000        0.00000000        0.00000000        0.00000000
     304         -0.801014        1.000000        0.00000000        0.00000000        0.00000000
     305         -0.800419        1.000000        0.00000000        0.00000000        0.00000000
     306         -0.800163        1.000000        0.00000000        0.00000000        0.00000000
     307         -0.798966        1.000000        0.00000000        0.00000000        0.00000000