# Projected DOS for list 345 of 1 atoms, at iteration step i = 0, E(Fermi) =    -0.245567 a.u.
#     MO Eigenvalue [a.u.]      Occupation                 s                 p
       1         -3.122063        1.000000        0.00000000        0.00000011
       2         -3.121278        1.000000        0.00000037        0.00000926
       3         -3.121021        1.000000        0.00000004        0.00000114
       4         -3.120578        1.000000        0.00000004        0.00000043
       5         -3.120271        1.000000        0.00000002        0.00000007
       6         -3.119857        1.000000        0.00000007        0.00000068
       7         -3.119652        1.000000        0.00000112        0.00001479
       8         -3.119624        1.000000        0.00000014        0.00000171
       9         -3.119219        1.000000        0.00000000        0.00000001
      10         -3.119023        1.000000        0.00000008        0.00000201
      11         -3.118913        1.000000        0.00000006        0.00000251
      12         -3.118874        1.000000        0.00000000        0.00000030
      13         -3.118317        1.000000        0.00000001        0.00000036
      14         -3.118249        1.000000        0.00000001        0.00000255
      15         -3.117895        1.000000        0.00000042        0.00001201
      16         -3.117383        1.000000        0.00000000        0.00000004
      17         -3.117165        1.000000        0.00000004        0.00000153
      18         -3.116815        1.000000        0.00000022        0.00000242
      19         -3.116436        1.000000        0.00000021        0.00000137
      20         -3.116021        1.000000        0.00000004        0.00000018
      21         -3.115852        1.000000        0.00000003        0.00000009
      22         -3.115668        1.000000        0.00000007        0.00000103
      23         -3.115368        1.000000        0.00000001        0.00000018
      24         -3.115339        1.000000        0.00000003        0.00000023
      25         -3.115041        1.000000        0.00000007        0.00000035
      26         -3.114366        1.000000        0.00000001        0.00000003
      27         -3.113951        1.000000        0.00000015        0.00000062
      28         -3.113764        1.000000        0.00000000        0.00000006
      29         -3.112534        1.000000        0.00000058        0.00000414
      30         -3.111679        1.000000        0.00000001        0.00000023
      31         -1.784233        1.000000        0.00000000        0.00000000
      32         -1.782870        1.000000        0.00000000        0.00000000
      33         -1.782324        1.000000        0.00000001        0.00000001
      34         -1.782130        1.000000        0.00000000        0.00000000
      35         -1.781736        1.000000        0.00000000        0.00000002
      36         -1.781230        1.000000        0.00000000        0.00000002
      37         -1.780847        1.000000        0.00000000        0.00000001
      38         -1.780487        1.000000        0.00000002        0.00000007
      39         -1.780184        1.000000        0.00000000        0.00000006
      40         -1.779550        1.000000        0.00000002        0.00000011
      41         -1.779259        1.000000        0.00000000        0.00000002
      42         -1.778921        1.000000        0.00000002        0.00000026
      43         -1.778390        1.000000        0.00000004        0.00000017
      44         -1.778140        1.000000        0.00000000        0.00000007
      45         -1.777912        1.000000        0.00000000        0.00000002
      46         -1.777514        1.000000        0.00000000        0.00000010
      47         -1.777362        1.000000        0.00000002        0.00000008
      48         -1.776787        1.000000        0.00000010        0.00000039
      49         -1.776537        1.000000        0.00000006        0.00000023
      50         -1.776457        1.000000        0.00000000        0.00000005
      51         -1.776029        1.000000        0.00000006        0.00000016
      52         -1.774038        1.000000        0.00000000        0.00000005
      53         -1.773797        1.000000        0.00000000        0.00000011
      54         -1.773665        1.000000        0.00000002        0.00000003
      55         -1.772725        1.000000        0.00000000        0.00000015
      56         -1.772546        1.000000        0.00000000        0.00000018
      57         -1.772041        1.000000        0.00000000        0.00000001
      58         -1.771662        1.000000        0.00000003        0.00000031
      59         -1.771364        1.000000        0.00000002        0.00000014
      60         -1.770813        1.000000        0.00000003        0.00000017
      61         -1.770640        1.000000        0.00000002        0.00000011
      62         -1.770449        1.000000        0.00000002        0.00000006
      63         -1.770188        1.000000        0.00000000        0.00000023
      64         -1.770126        1.000000        0.00000008        0.00000005
      65         -1.769991        1.000000        0.00000001        0.00000004
      66         -1.769845        1.000000        0.00000012        0.00000007
      67         -1.769763        1.000000        0.00000004        0.00000006
      68         -1.769661        1.000000        0.00000001        0.00000014
      69         -1.769465        1.000000        0.00000000        0.00000005
      70         -1.769351        1.000000        0.00000002        0.00000001
      71         -1.769328        1.000000        0.00000001        0.00000002
      72         -1.769216        1.000000        0.00000002        0.00000008
      73         -1.769129        1.000000        0.00000005        0.00000004
      74         -1.769070        1.000000        0.00000004        0.00000002
      75         -1.768941        1.000000        0.00000000        0.00000004
      76         -1.768822        1.000000        0.00000002        0.00000005
      77         -1.768707        1.000000        0.00000000        0.00000001
      78         -1.768585        1.000000        0.00000000        0.00000000
      79         -1.768439        1.000000        0.00000000        0.00000006
      80         -1.768329        1.000000        0.00000011        0.00000003
      81         -1.768089        1.000000        0.00000002        0.00000000
      82         -1.767883        1.000000        0.00000006        0.00000003
      83         -1.767662        1.000000        0.00000000        0.00000006
      84         -1.767495        1.000000        0.00000008        0.00000006
      85         -1.767311        1.000000        0.00000002        0.00000008
      86         -1.767266        1.000000        0.00000003        0.00000013
      87         -1.767060        1.000000        0.00000001        0.00000004
      88         -1.767025        1.000000        0.00000001        0.00000006
      89         -1.766872        1.000000        0.00000000        0.00000004
      90         -1.766524        1.000000        0.00000001        0.00000003
      91         -1.766405        1.000000        0.00000000        0.00000001
      92         -1.766254        1.000000        0.00000000        0.00000003
      93         -1.766123        1.000000        0.00000003        0.00000007
      94         -1.765857        1.000000        0.00000000        0.00000001
      95         -1.765515        1.000000        0.00000000        0.00000001
      96         -1.765181        1.000000        0.00000000        0.00000001
      97         -1.765105        1.000000        0.00000001        0.00000004
      98         -1.764967        1.000000        0.00000000        0.00000002
      99         -1.764710        1.000000        0.00000000        0.00000002
     100         -1.764440        1.000000        0.00000000        0.00000001
     101         -1.764248        1.000000        0.00000000        0.00000002
     102         -1.763945        1.000000        0.00000000        0.00000004
     103         -1.763804        1.000000        0.00000000        0.00000005
     104         -1.763351        1.000000        0.00000000        0.00000006
     105         -1.763205        1.000000        0.00000000        0.00000003
     106         -1.763107        1.000000        0.00000001        0.00000008
     107         -1.762531        1.000000        0.00000001        0.00000002
     108         -1.762343        1.000000        0.00000001        0.00000009
     109         -1.761453        1.000000        0.00000003        0.00000020
     110         -1.760969        1.000000        0.00000000        0.00000003
     111         -1.760481        1.000000        0.00000002        0.00000010
     112         -1.760009        1.000000        0.00000000        0.00000005
     113         -1.759531        1.000000        0.00000000        0.00000001
     114         -1.759105        1.000000        0.00000003        0.00000018
     115         -1.758777        1.000000        0.00000000        0.00000000
     116         -1.757462        1.000000        0.00000000        0.00000000
     117         -1.756221        1.000000        0.00000000        0.00000000
     118         -1.755333        1.000000        0.00000000        0.00000000
     119         -1.754385        1.000000        0.00000000        0.00000000
     120         -1.752742        1.000000        0.00000000        0.00000000
     121         -1.131181        1.000000        0.00003154        0.00003649
     122         -1.128658        1.000000        0.00002761        0.00010151
     123         -1.128000        1.000000        0.00004755        0.00006936
     124         -1.126427        1.000000        0.00000396        0.00001126
     125         -1.120469        1.000000        0.00008006        0.00011740
     126         -1.119202        1.000000        0.00023978        0.00031394
     127         -1.117081        1.000000        0.00020965        0.00027557
     128         -1.116156        1.000000        0.00001466        0.00010313
     129         -1.115054        1.000000        0.00004297        0.00010473
     130         -1.111818        1.000000        0.00044000        0.00032526
     131         -1.111610        1.000000        0.00000483        0.00000868
     132         -1.110976        1.000000        0.00016160        0.00008412
     133         -1.109888        1.000000        0.00006443        0.00025501
     134         -1.108601        1.000000        0.00000809        0.00001406
     135         -1.108036        1.000000        0.00012680        0.00022931
     136         -1.107349        1.000000        0.00003800        0.00001795
     137         -1.106797        1.000000        0.00001579        0.00002197
     138         -1.106077        1.000000        0.00027185        0.00009732
     139         -1.104162        1.000000        0.00060839        0.00023514
     140         -1.102892        1.000000        0.00004179        0.00001433
     141         -1.102196        1.000000        0.00010348        0.00054520
     142         -1.101581        1.000000        0.00003817        0.00018104
     143         -1.101215        1.000000        0.00013185        0.00001737
     144         -1.099602        1.000000        0.00000871        0.00000548
     145         -1.098107        1.000000        0.00025398        0.00011570
     146         -1.097450        1.000000        0.00121804        0.00051523
     147         -1.097046        1.000000        0.00021345        0.00019010
     148         -1.095795        1.000000        0.00009445        0.00015497
     149         -1.095192        1.000000        0.00057187        0.00013900
     150         -1.093515        1.000000        0.00037714        0.00051479
     151         -1.093123        1.000000        0.00068507        0.00039390
     152         -1.092614        1.000000        0.00077119        0.00011528
     153         -1.091821        1.000000        0.00028976        0.00028772
     154         -1.090761        1.000000        0.00033227        0.00036013
     155         -1.090597        1.000000        0.00007666        0.00001155
     156         -1.089544        1.000000        0.00000354        0.00001872
     157         -1.088154        1.000000        0.00036251        0.00048593
     158         -1.086960        1.000000        0.00028055        0.00014018
     159         -1.086718        1.000000        0.00016975        0.00002333
     160         -1.085525        1.000000        0.00210354        0.00015370
     161         -1.084219        1.000000        0.00005989        0.00004791
     162         -1.082734        1.000000        0.00001256        0.00028935
     163         -1.082381        1.000000        0.00056739        0.00005593
     164         -1.080807        1.000000        0.00007869        0.00007699
     165         -1.080293        1.000000        0.00092362        0.00000846
     166         -1.079453        1.000000        0.00010809        0.00009034
     167         -1.078246        1.000000        0.00013784        0.00048640
     168         -1.077774        1.000000        0.00013369        0.00003876
     169         -1.077143        1.000000        0.00007618        0.00003048
     170         -1.076426        1.000000        0.00011371        0.00001351
     171         -1.076145        1.000000        0.00003230        0.00007013
     172         -1.074526        1.000000        0.00033238        0.00000956
     173         -1.074368        1.000000        0.00161167        0.00065594
     174         -1.073652        1.000000        0.00071042        0.00004470
     175         -1.072808        1.000000        0.00074369        0.00058924
     176         -1.072152        1.000000        0.00006181        0.00008151
     177         -1.071192        1.000000        0.00147586        0.00003583
     178         -1.070444        1.000000        0.01524674        0.00477036
     179         -1.070141        1.000000        0.00196940        0.00129439
     180         -1.069416        1.000000        0.00352061        0.00128906
     181         -1.069179        1.000000        0.00373368        0.00085986
     182         -1.067610        1.000000        0.00559478        0.00346686
     183         -1.066240        1.000000        0.00125957        0.00138921
     184         -1.065124        1.000000        0.00140943        0.00055232
     185         -1.064565        1.000000        0.00042637        0.00005182
     186         -1.063575        1.000000        0.00565174        0.00119959
     187         -1.062901        1.000000        0.01942191        0.01441278
     188         -1.062274        1.000000        0.01620734        0.01076114
     189         -1.061481        1.000000        0.00972205        0.00766059
     190         -1.061312        1.000000        0.00287745        0.00250211
     191         -1.060592        1.000000        0.00352003        0.00296491
     192         -1.059297        1.000000        0.00032813        0.00008007
     193         -1.058643        1.000000        0.00448409        0.00370576
     194         -1.058262        1.000000        0.01387586        0.00757875
     195         -1.057127        1.000000        0.00519426        0.00388369
     196         -1.056224        1.000000        0.00038500        0.00001577
     197         -1.056050        1.000000        0.00158252        0.00104875
     198         -1.054881        1.000000        0.00021452        0.00046158
     199         -1.054669        1.000000        0.00088316        0.00086361
     200         -1.053605        1.000000        0.00086432        0.00040457
     201         -1.053457        1.000000        0.00000074        0.00000177
     202         -1.052589        1.000000        0.00005161        0.00006256
     203         -1.052089        1.000000        0.00019519        0.00014517
     204         -1.051299        1.000000        0.00167426        0.00097098
     205         -1.050676        1.000000        0.00011654        0.00005509
     206         -1.050307        1.000000        0.00035375        0.00030809
     207         -1.049921        1.000000        0.00210215        0.00123098
     208         -1.049485        1.000000        0.00069642        0.00039557
     209         -1.049126        1.000000        0.00016687        0.00006185
     210         -1.048445        1.000000        0.00292463        0.00169546
     211         -1.048201        1.000000        0.00392119        0.00242303
     212         -1.047911        1.000000        0.00020136        0.00011565
     213         -1.047620        1.000000        0.00039218        0.00039292
     214         -1.046931        1.000000        0.00000635        0.00000566
     215         -1.046733        1.000000        0.00040952        0.00012170
     216         -1.046634        1.000000        0.00022758        0.00016408
     217         -1.045930        1.000000        0.00028666        0.00014884
     218         -1.045069        1.000000        0.00039097        0.00010255
     219         -1.044350        1.000000        0.00001265        0.00001245
     220         -1.043623        1.000000        0.00107300        0.00063408
     221         -1.043421        1.000000        0.00195403        0.00099011
     222         -1.042778        1.000000        0.00004100        0.00001184
     223         -1.042701        1.000000        0.00000058        0.00000800
     224         -1.042424        1.000000        0.00047953        0.00013942
     225         -1.041682        1.000000        0.00210512        0.00101112
     226         -1.041498        1.000000        0.00006625        0.00002089
     227         -1.040837        1.000000        0.00281165        0.00128186
     228         -1.040496        1.000000        0.00008251        0.00003055
     229         -1.040151        1.000000        0.00000849        0.00000247
     230         -1.039686        1.000000        0.00009313        0.00002831
     231         -1.038961        1.000000        0.00011144        0.00003522
     232         -1.038553        1.000000        0.00006718        0.00001477
     233         -1.038476        1.000000        0.00006604        0.00001825
     234         -1.038152        1.000000        0.00000251        0.00001996
     235         -1.038041        1.000000        0.00001855        0.00001460
     236         -1.036855        1.000000        0.00001842        0.00001514
     237         -1.036488        1.000000        0.00000021        0.00000650
     238         -1.036186        1.000000        0.00000087        0.00000244
     239         -1.036068        1.000000        0.00000484        0.00001405
     240         -1.035757        1.000000        0.00009704        0.00002035
     241         -1.035291        1.000000        0.00008334        0.00001429
     242         -1.035048        1.000000        0.00000844        0.00000884
     243         -1.035000        1.000000        0.00000771        0.00004830
     244         -1.034454        1.000000        0.00002228        0.00000745
     245         -1.034219        1.000000        0.00004345        0.00001315
     246         -1.033874        1.000000        0.00001069        0.00001546
     247         -1.033507        1.000000        0.00000737        0.00000228
     248         -1.033219        1.000000        0.00002155        0.00005649
     249         -1.033056        1.000000        0.00001940        0.00001840
     250         -1.032307        1.000000        0.00002209        0.00002217
     251         -1.031324        1.000000        0.00015423        0.00009885
     252         -1.031144        1.000000        0.00002231        0.00002750
     253         -1.030643        1.000000        0.00001997        0.00000407
     254         -1.030284        1.000000        0.00000035        0.00000128
     255         -1.030062        1.000000        0.00001299        0.00000560
     256         -1.029818        1.000000        0.00004037        0.00001397
     257         -1.028552        1.000000        0.00000388        0.00000186
     258         -1.027578        1.000000        0.00001892        0.00001483
     259         -1.027121        1.000000        0.00001219        0.00000179
     260         -1.026880        1.000000        0.00002144        0.00000784
     261         -1.026226        1.000000        0.00000023        0.00000048
     262         -1.025765        1.000000        0.00002548        0.00000774
     263         -1.025299        1.000000        0.00000607        0.00000175
     264         -1.025158        1.000000        0.00034997        0.00009904
     265         -1.025007        1.000000        0.00024577        0.00007191
     266         -1.024422        1.000000        0.00001134        0.00000718
     267         -1.023793        1.000000        0.00002081        0.00001071
     268         -1.023594        1.000000        0.00144009        0.00067968
     269         -1.023069        1.000000        0.00000399        0.00000666
     270         -1.022603        1.000000        0.00000102        0.00000172
     271         -1.022074        1.000000        0.00000199        0.00000983
     272         -1.021695        1.000000        0.00002034        0.00001616
     273         -1.021372        1.000000        0.00000014        0.00000077
     274         -1.021076        1.000000        0.00000626        0.00006858
     275         -1.019492        1.000000        0.00000010        0.00000020
     276         -1.018003        1.000000        0.00000012        0.00000013
     277         -1.016408        1.000000        0.00022449        0.00004661
     278         -1.016278        1.000000        0.00002221        0.00000460
     279         -1.015338        1.000000        0.00000031        0.00000020
     280         -1.013851        1.000000        0.00000079        0.00000028
     281         -1.010223        1.000000        0.00000006        0.00000002
     282         -1.009666        1.000000        0.00000001        0.00000000
     283         -1.007726        1.000000        0.00000021        0.00000007
     284         -1.007300        1.000000        0.00000004        0.00000003
     285         -1.006916        1.000000        0.00000000        0.00000000
     286         -0.889442        1.000000        0.00000108        0.00006007
     287         -0.869424        1.000000        0.00000088        0.00006714
     288         -0.867225        1.000000        0.00000058        0.00001848
     289         -0.864755        1.000000        0.00000052        0.00004127
     290         -0.860947        1.000000        0.00000252        0.00009782
     291         -0.846899        1.000000        0.00000157        0.00008293
     292         -0.844423        1.000000        0.00000001        0.00000767
     293         -0.843782        1.000000        0.00000119        0.00008200
     294         -0.840445        1.000000        0.00000367        0.00006959
     295         -0.821748        1.000000        0.00000184        0.00002992
     296         -0.818927        1.000000        0.00000036        0.00003268
     297         -0.814033        1.000000        0.00000022        0.00002081
     298         -0.808071        1.000000        0.00000007        0.00000489
     299         -0.807076        1.000000        0.00000048        0.00001818
     300         -0.806003        1.000000        0.00000161        0.00002266
     301         -0.805433        1.000000        0.00000060        0.00006286
     302         -0.803208        1.000000        0.00000450        0.00005181
     303         -0.802271        1.000000        0.00000106        0.00001557
     304         -0.801014        1.000000        0.00000000        0.00001068
     305         -0.800419        1.000000        0.00000418        0.00006150
     306         -0.800163        1.000000        0.00000045        0.00001399
     307         -0.798966        1.000000        0.00000348        0.00004925
     308         -0.796270        1.000000        0.00000045        0.00004421
     309         -0.795746        1.000000        0.00000129        0.00003287
     310         -0.794333        1.000000        0.00000302        0.00005327
     311         -0.792293        1.000000        0.00000123        0.00001501
     312         -0.791548        1.000000        0.00000008        0.00000108
     313         -0.790603        1.000000        0.00000166        0.00001359
     314         -0.790424        1.000000        0.00000035        0.00000758
     315         -0.789930        1.000000        0.00000103        0.00000524
     316         -0.788450        1.000000        0.00000036        0.00001062
     317         -0.787526        1.000000        0.00000074        0.00000733
     318         -0.786788        1.000000        0.00000155        0.00002090
     319         -0.781836        1.000000        0.00000118        0.00000473
     320         -0.780998        1.000000        0.00000054        0.00000681
     321         -0.780477        1.000000        0.00000020        0.00000248
     322         -0.779060        1.000000        0.00000070        0.00000520
     323         -0.778943        1.000000        0.00000016        0.00000381
     324         -0.777233        1.000000        0.00000010        0.00000422
     325         -0.775897        1.000000        0.00000354        0.00002592
     326         -0.774887        1.000000        0.00000129        0.00000275
     327         -0.773671        1.000000        0.00000028        0.00000140
     328         -0.773422        1.000000        0.00000140        0.00000860
     329         -0.772414        1.000000        0.00000044        0.00000475
     330         -0.771266        1.000000        0.00000111        0.00001523
     331         -0.770604        1.000000        0.00000123        0.00004038
     332         -0.769886        1.000000        0.00000035        0.00000179
     333         -0.769439        1.000000        0.00000011        0.00000003
     334         -0.769009        1.000000        0.00000174        0.00001172
     335         -0.767483        1.000000        0.00000184        0.00000615
     336         -0.766717        1.000000        0.00000214        0.00001033
     337         -0.765490        1.000000        0.00000041        0.00000124
     338         -0.763700        1.000000        0.00000036        0.00000354
     339         -0.762625        1.000000        0.00000061        0.00000774
     340         -0.761653        1.000000        0.00000068        0.00000241
     341         -0.761196        1.000000        0.00000028        0.00000537
     342         -0.759265        1.000000        0.00000012        0.00000431
     343         -0.758410        1.000000        0.00000001        0.00000029
     344         -0.755260        1.000000        0.00000016        0.00000248
     345         -0.754586        1.000000        0.00000024        0.00000135
     346         -0.703685        1.000000        0.00000097        0.00001064
     347         -0.693847        1.000000        0.00000158        0.00002204
     348         -0.690060        1.000000        0.00000763        0.00001382
     349         -0.688902        1.000000        0.00000737        0.00001156
     350         -0.684111        1.000000        0.00000145        0.00000244
     351         -0.681092        1.000000        0.00000360        0.00000440
     352         -0.678905        1.000000        0.00000284        0.00001881
     353         -0.676982        1.000000        0.00000129        0.00000266
     354         -0.673929        1.000000        0.00001178        0.00001661
     355         -0.673106        1.000000        0.00000092        0.00001455
     356         -0.670728        1.000000        0.00000998        0.00001645
     357         -0.670092        1.000000        0.00000288        0.00003166
     358         -0.669168        1.000000        0.00000991        0.00001525
     359         -0.667801        1.000000        0.00000319        0.00000468
     360         -0.665884        1.000000        0.00000391        0.00002083
     361         -0.664702        1.000000        0.00000506        0.00000758
     362         -0.662263        1.000000        0.00000005        0.00000038
     363         -0.660875        1.000000        0.00000032        0.00001112
     364         -0.658191        1.000000        0.00000393        0.00001390
     365         -0.657373        1.000000        0.00000426        0.00000290
     366         -0.655967        1.000000        0.00000881        0.00000328
     367         -0.655536        1.000000        0.00003243        0.00004864
     368         -0.653752        1.000000        0.00000424        0.00001878
     369         -0.651127        1.000000        0.00000897        0.00001915
     370         -0.648938        1.000000        0.00000168        0.00000051
     371         -0.647875        1.000000        0.00002346        0.00004153
     372         -0.644925        1.000000        0.00001190        0.00002604
     373         -0.644581        1.000000        0.00000252        0.00000433
     374         -0.641910        1.000000        0.00004596        0.00006378
     375         -0.641212        1.000000        0.00001692        0.00003801
     376         -0.639876        1.000000        0.00000807        0.00001352
     377         -0.637901        1.000000        0.00000087        0.00000752