# Projected DOS for list 86 of 1 atoms, at iteration step i = 0, E(Fermi) =    -0.245567 a.u.
#     MO Eigenvalue [a.u.]      Occupation                 s                 p                 d
       1         -3.122063        1.000000        0.00000000        0.00000000        0.00000000
       2         -3.121278        1.000000        0.00000000        0.00000000        0.00000000
       3         -3.121021        1.000000        0.00000000        0.00000000        0.00000000
       4         -3.120578        1.000000        0.00000000        0.00000000        0.00000000
       5         -3.120271        1.000000        0.00000000        0.00000000        0.00000000
       6         -3.119857        1.000000        0.00000000        0.00000000        0.00000000
       7         -3.119652        1.000000        0.00000000        0.00000000        0.00000000
       8         -3.119624        1.000000        0.00000000        0.00000000        0.00000000
       9         -3.119219        1.000000        0.00000000        0.00000000        0.00000000
      10         -3.119023        1.000000        0.00000000        0.00000000        0.00000000
      11         -3.118913        1.000000        0.00000000        0.00000000        0.00000000
      12         -3.118874        1.000000        0.00000000        0.00000000        0.00000000
      13         -3.118317        1.000000        0.00000000        0.00000000        0.00000000
      14         -3.118249        1.000000        0.00000000        0.00000000        0.00000000
      15         -3.117895        1.000000        0.00000000        0.00000000        0.00000000
      16         -3.117383        1.000000        0.00000000        0.00000000        0.00000000
      17         -3.117165        1.000000        0.00000000        0.00000000        0.00000000
      18         -3.116815        1.000000        0.00000000        0.00000000        0.00000000
      19         -3.116436        1.000000        0.00000000        0.00000000        0.00000000
      20         -3.116021        1.000000        0.00000000        0.00000000        0.00000000
      21         -3.115852        1.000000        0.00000000        0.00000000        0.00000000
      22         -3.115668        1.000000        0.00000000        0.00000000        0.00000000
      23         -3.115368        1.000000        0.00000000        0.00000000        0.00000000
      24         -3.115339        1.000000        0.00000000        0.00000000        0.00000000
      25         -3.115041        1.000000        0.00000000        0.00000000        0.00000000
      26         -3.114366        1.000000        0.00000000        0.00000000        0.00000000
      27         -3.113951        1.000000        0.00000000        0.00000000        0.00000000
      28         -3.113764        1.000000        0.00000000        0.00000000        0.00000000
      29         -3.112534        1.000000        0.00000000        0.00000000        0.00000000
      30         -3.111679        1.000000        0.00000000        0.00000000        0.00000000
      31         -1.784233        1.000000        0.00000000        0.00000000        0.00000000
      32         -1.782870        1.000000        0.00000000        0.00000000        0.00000000
      33         -1.782324        1.000000        0.00000000        0.00000000        0.00000000
      34         -1.782130        1.000000        0.00000000        0.00000000        0.00000000
      35         -1.781736        1.000000        0.00000000        0.00000000        0.00000000
      36         -1.781230        1.000000        0.00000000        0.00000000        0.00000000
      37         -1.780847        1.000000        0.00000000        0.00000000        0.00000000
      38         -1.780487        1.000000        0.00000000        0.00000000        0.00000000
      39         -1.780184        1.000000        0.00000000        0.00000000        0.00000000
      40         -1.779550        1.000000        0.00000000        0.00000000        0.00000000
      41         -1.779259        1.000000        0.00000000        0.00000000        0.00000000
      42         -1.778921        1.000000        0.00000000        0.00000000        0.00000000
      43         -1.778390        1.000000        0.00000000        0.00000000        0.00000000
      44         -1.778140        1.000000        0.00000000        0.00000000        0.00000000
      45         -1.777912        1.000000        0.00000000        0.00000000        0.00000000
      46         -1.777514        1.000000        0.00000000        0.00000000        0.00000000
      47         -1.777362        1.000000        0.00000000        0.00000000        0.00000000
      48         -1.776787        1.000000        0.00000000        0.00000000        0.00000000
      49         -1.776537        1.000000        0.00000000        0.00000000        0.00000000
      50         -1.776457        1.000000        0.00000000        0.00000000        0.00000000
      51         -1.776029        1.000000        0.00000000        0.00000000        0.00000000
      52         -1.774038        1.000000        0.00000000        0.00000000        0.00000000
      53         -1.773797        1.000000        0.00000000        0.00000000        0.00000000
      54         -1.773665        1.000000        0.00000000        0.00000000        0.00000000
      55         -1.772725        1.000000        0.00000000        0.00000000        0.00000000
      56         -1.772546        1.000000        0.00000000        0.00000000        0.00000000
      57         -1.772041        1.000000        0.00000000        0.00000000        0.00000000
      58         -1.771662        1.000000        0.00000000        0.00000000        0.00000000
      59         -1.771364        1.000000        0.00000000        0.00000000        0.00000000
      60         -1.770813        1.000000        0.00000000        0.00000000        0.00000000
      61         -1.770640        1.000000        0.00000000        0.00000000        0.00000000
      62         -1.770449        1.000000        0.00000000        0.00000000        0.00000000
      63         -1.770188        1.000000        0.00000000        0.00000000        0.00000000
      64         -1.770126        1.000000        0.00000000        0.00000000        0.00000000
      65         -1.769991        1.000000        0.00000000        0.00000000        0.00000000
      66         -1.769845        1.000000        0.00000000        0.00000000        0.00000000
      67         -1.769763        1.000000        0.00000000        0.00000000        0.00000000
      68         -1.769661        1.000000        0.00000000        0.00000000        0.00000000
      69         -1.769465        1.000000        0.00000000        0.00000000        0.00000000
      70         -1.769351        1.000000        0.00000000        0.00000000        0.00000000
      71         -1.769328        1.000000        0.00000000        0.00000000        0.00000000
      72         -1.769216        1.000000        0.00000000        0.00000000        0.00000000
      73         -1.769129        1.000000        0.00000000        0.00000000        0.00000000
      74         -1.769070        1.000000        0.00000000        0.00000000        0.00000000
      75         -1.768941        1.000000        0.00000000        0.00000000        0.00000000
      76         -1.768822        1.000000        0.00000000        0.00000000        0.00000000
      77         -1.768707        1.000000        0.00000000        0.00000000        0.00000000
      78         -1.768585        1.000000        0.00000000        0.00000000        0.00000000
      79         -1.768439        1.000000        0.00000000        0.00000000        0.00000000
      80         -1.768329        1.000000        0.00000000        0.00000000        0.00000000
      81         -1.768089        1.000000        0.00000000        0.00000000        0.00000000
      82         -1.767883        1.000000        0.00000000        0.00000000        0.00000000
      83         -1.767662        1.000000        0.00000000        0.00000000        0.00000000
      84         -1.767495        1.000000        0.00000000        0.00000000        0.00000000
      85         -1.767311        1.000000        0.00000000        0.00000000        0.00000000
      86         -1.767266        1.000000        0.00000000        0.00000000        0.00000000
      87         -1.767060        1.000000        0.00000000        0.00000000        0.00000000
      88         -1.767025        1.000000        0.00000000        0.00000000        0.00000000
      89         -1.766872        1.000000        0.00000000        0.00000000        0.00000000
      90         -1.766524        1.000000        0.00000000        0.00000000        0.00000000
      91         -1.766405        1.000000        0.00000000        0.00000000        0.00000000
      92         -1.766254        1.000000        0.00000000        0.00000000        0.00000000
      93         -1.766123        1.000000        0.00000000        0.00000000        0.00000000
      94         -1.765857        1.000000        0.00000000        0.00000000        0.00000000
      95         -1.765515        1.000000        0.00000000        0.00000000        0.00000000
      96         -1.765181        1.000000        0.00000000        0.00000000        0.00000000
      97         -1.765105        1.000000        0.00000000        0.00000000        0.00000000
      98         -1.764967        1.000000        0.00000000        0.00000000        0.00000000
      99         -1.764710        1.000000        0.00000000        0.00000000        0.00000000
     100         -1.764440        1.000000        0.00000000        0.00000000        0.00000000
     101         -1.764248        1.000000        0.00000000        0.00000000        0.00000000
     102         -1.763945        1.000000        0.00000000        0.00000000        0.00000000
     103         -1.763804        1.000000        0.00000000        0.00000000        0.00000000
     104         -1.763351        1.000000        0.00000000        0.00000000        0.00000000
     105         -1.763205        1.000000        0.00000000        0.00000000        0.00000000
     106         -1.763107        1.000000        0.00000000        0.00000000        0.00000000
     107         -1.762531        1.000000        0.00000000        0.00000000        0.00000000
     108         -1.762343        1.000000        0.00000000        0.00000000        0.00000000
     109         -1.761453        1.000000        0.00000000        0.00000000        0.00000000
     110         -1.760969        1.000000        0.00000000        0.00000000        0.00000000
     111         -1.760481        1.000000        0.00000000        0.00000000        0.00000000
     112         -1.760009        1.000000        0.00000000        0.00000000        0.00000000
     113         -1.759531        1.000000        0.00000000        0.00000000        0.00000000
     114         -1.759105        1.000000        0.00000000        0.00000000        0.00000000
     115         -1.758777        1.000000        0.00000000        0.00000000        0.00000000
     116         -1.757462        1.000000        0.00000000        0.00000000        0.00000000
     117         -1.756221        1.000000        0.00000000        0.00000000        0.00000000
     118         -1.755333        1.000000        0.00000000        0.00000000        0.00000000
     119         -1.754385        1.000000        0.00000000        0.00000000        0.00000000
     120         -1.752742        1.000000        0.00000000        0.00000000        0.00000000
     121         -1.131181        1.000000        0.02386983        0.00298815        0.00067275
     122         -1.128658        1.000000        0.02088291        0.00278041        0.00058309
     123         -1.128000        1.000000        0.00043862        0.00010487        0.00001641
     124         -1.126427        1.000000        0.00046898        0.00037937        0.00003311
     125         -1.120469        1.000000        0.00008692        0.00006708        0.00000448
     126         -1.119202        1.000000        0.00156649        0.00005842        0.00004114
     127         -1.117081        1.000000        0.00117574        0.00066373        0.00003733
     128         -1.116156        1.000000        0.00001481        0.00002672        0.00000773
     129         -1.115054        1.000000        0.00796560        0.00040182        0.00016603
     130         -1.111818        1.000000        0.00112390        0.00001946        0.00005695
     131         -1.111610        1.000000        0.00338301        0.00069813        0.00009084
     132         -1.110976        1.000000        0.00001340        0.00002397        0.00000856
     133         -1.109888        1.000000        0.00301223        0.00005677        0.00010464
     134         -1.108601        1.000000        0.00047184        0.00008180        0.00002441
     135         -1.108036        1.000000        0.00293783        0.00004728        0.00008088
     136         -1.107349        1.000000        0.00005267        0.00005237        0.00000525
     137         -1.106797        1.000000        0.00025419        0.00001570        0.00001538
     138         -1.106077        1.000000        0.00006020        0.00024509        0.00000846
     139         -1.104162        1.000000        0.00047132        0.00006245        0.00002060
     140         -1.102892        1.000000        0.00229907        0.00013640        0.00003285
     141         -1.102196        1.000000        0.00034011        0.00042465        0.00005870
     142         -1.101581        1.000000        0.00759583        0.00146090        0.00015109
     143         -1.101215        1.000000        0.00115030        0.00001984        0.00008363
     144         -1.099602        1.000000        0.01548477        0.00074439        0.00033721
     145         -1.098107        1.000000        0.00202997        0.00153844        0.00004856
     146         -1.097450        1.000000        0.00000440        0.00039321        0.00002092
     147         -1.097046        1.000000        0.00868408        0.00139346        0.00007234
     148         -1.095795        1.000000        0.00002827        0.00015629        0.00000768
     149         -1.095192        1.000000        0.00542284        0.00019765        0.00005892
     150         -1.093515        1.000000        0.00105237        0.00018356        0.00008523
     151         -1.093123        1.000000        0.00328936        0.00071130        0.00006693
     152         -1.092614        1.000000        0.00360656        0.00115900        0.00003379
     153         -1.091821        1.000000        0.00035803        0.00005243        0.00001353
     154         -1.090761        1.000000        0.00993643        0.00059172        0.00013531
     155         -1.090597        1.000000        0.00075116        0.00021698        0.00002277
     156         -1.089544        1.000000        0.00000055        0.00003924        0.00000593
     157         -1.088154        1.000000        0.00127370        0.00002902        0.00002561
     158         -1.086960        1.000000        0.00010352        0.00007724        0.00000971
     159         -1.086718        1.000000        0.00706616        0.00032785        0.00003755
     160         -1.085525        1.000000        0.00004380        0.00006763        0.00000541
     161         -1.084219        1.000000        0.00201779        0.00053810        0.00006041
     162         -1.082734        1.000000        0.00503656        0.00006543        0.00009987
     163         -1.082381        1.000000        0.00176890        0.00020936        0.00001978
     164         -1.080807        1.000000        0.00003960        0.00017170        0.00002508
     165         -1.080293        1.000000        0.00010840        0.00004834        0.00001725
     166         -1.079453        1.000000        0.00043985        0.00016243        0.00000250
     167         -1.078246        1.000000        0.00108438        0.00007992        0.00004444
     168         -1.077774        1.000000        0.00566665        0.00026829        0.00008298
     169         -1.077143        1.000000        0.01904628        0.00127416        0.00008010
     170         -1.076426        1.000000        0.00051051        0.00025055        0.00006188
     171         -1.076145        1.000000        0.00000311        0.00004222        0.00007971
     172         -1.074526        1.000000        0.00414142        0.00013257        0.00001945
     173         -1.074368        1.000000        0.01956304        0.00025752        0.00017986
     174         -1.073652        1.000000        0.00093197        0.00007162        0.00003799
     175         -1.072808        1.000000        0.00261637        0.00010386        0.00001319
     176         -1.072152        1.000000        0.00331932        0.00091543        0.00000676
     177         -1.071192        1.000000        0.00089498        0.00021961        0.00000596
     178         -1.070444        1.000000        0.00002382        0.00038513        0.00001525
     179         -1.070141        1.000000        0.01542911        0.00052180        0.00011200
     180         -1.069416        1.000000        0.00289730        0.00017871        0.00004818
     181         -1.069179        1.000000        0.00499166        0.00005780        0.00002875
     182         -1.067610        1.000000        0.00228082        0.00037677        0.00000772
     183         -1.066240        1.000000        0.00016351        0.00001481        0.00000268
     184         -1.065124        1.000000        0.00045511        0.00006651        0.00002120
     185         -1.064565        1.000000        0.00970145        0.00055509        0.00002249
     186         -1.063575        1.000000        0.00644883        0.00024144        0.00001452
     187         -1.062901        1.000000        0.00137307        0.00004094        0.00002285
     188         -1.062274        1.000000        0.00026729        0.00008993        0.00003653
     189         -1.061481        1.000000        0.00257613        0.00006461        0.00000471
     190         -1.061312        1.000000        0.02043598        0.00028841        0.00002028
     191         -1.060592        1.000000        0.00229601        0.00006801        0.00002195
     192         -1.059297        1.000000        0.00066512        0.00003871        0.00001281
     193         -1.058643        1.000000        0.00042295        0.00013223        0.00002957
     194         -1.058262        1.000000        0.00004009        0.00006595        0.00003598
     195         -1.057127        1.000000        0.00248326        0.00004266        0.00000648
     196         -1.056224        1.000000        0.00009319        0.00002592        0.00000824
     197         -1.056050        1.000000        0.00088085        0.00017665        0.00001671
     198         -1.054881        1.000000        0.00151689        0.00010787        0.00002024
     199         -1.054669        1.000000        0.02951235        0.00035995        0.00011757
     200         -1.053605        1.000000        0.00041341        0.00000993        0.00001661
     201         -1.053457        1.000000        0.00003043        0.00001128        0.00000540
     202         -1.052589        1.000000        0.00391964        0.00003510        0.00001159
     203         -1.052089        1.000000        0.00072465        0.00001394        0.00000906
     204         -1.051299        1.000000        0.00290283        0.00006627        0.00004127
     205         -1.050676        1.000000        0.00000998        0.00000831        0.00000872
     206         -1.050307        1.000000        0.00302830        0.00004802        0.00003327
     207         -1.049921        1.000000        0.00009412        0.00003286        0.00001350
     208         -1.049485        1.000000        0.00313003        0.00009924        0.00000799
     209         -1.049126        1.000000        0.00023950        0.00001276        0.00001123
     210         -1.048445        1.000000        0.00235087        0.00003867        0.00001268
     211         -1.048201        1.000000        0.00186417        0.00011354        0.00002173
     212         -1.047911        1.000000        0.00333272        0.00004496        0.00002138
     213         -1.047620        1.000000        0.00832118        0.00013030        0.00006068
     214         -1.046931        1.000000        0.00440934        0.00011257        0.00002402
     215         -1.046733        1.000000        0.00094191        0.00001584        0.00000739
     216         -1.046634        1.000000        0.00765486        0.00017637        0.00002399
     217         -1.045930        1.000000        0.00952755        0.00011810        0.00002395
     218         -1.045069        1.000000        0.00431775        0.00007443        0.00003939
     219         -1.044350        1.000000        0.07725961        0.00070664        0.00015815
     220         -1.043623        1.000000        0.00053185        0.00001879        0.00001269
     221         -1.043421        1.000000        0.00130602        0.00001529        0.00000978
     222         -1.042778        1.000000        0.01674695        0.00017162        0.00001405
     223         -1.042701        1.000000        0.00052121        0.00001846        0.00000265
     224         -1.042424        1.000000        0.00104892        0.00002935        0.00000749
     225         -1.041682        1.000000        0.00059604        0.00001075        0.00000775
     226         -1.041498        1.000000        0.00328717        0.00004873        0.00000476
     227         -1.040837        1.000000        0.00151611        0.00001476        0.00000336
     228         -1.040496        1.000000        0.00944801        0.00016937        0.00000659
     229         -1.040151        1.000000        0.00033060        0.00000897        0.00000389
     230         -1.039686        1.000000        0.00415157        0.00006842        0.00000711
     231         -1.038961        1.000000        0.00038940        0.00000587        0.00000135
     232         -1.038553        1.000000        0.00102446        0.00002208        0.00000905
     233         -1.038476        1.000000        0.01021043        0.00019689        0.00001995
     234         -1.038152        1.000000        0.03073213        0.00058769        0.00005788
     235         -1.038041        1.000000        0.00818575        0.00030564        0.00004429
     236         -1.036855        1.000000        0.00202701        0.00008504        0.00002725
     237         -1.036488        1.000000        0.00346740        0.00009584        0.00001983
     238         -1.036186        1.000000        0.00125362        0.00002424        0.00000739
     239         -1.036068        1.000000        0.00208595        0.00003641        0.00000251
     240         -1.035757        1.000000        0.00015906        0.00002600        0.00000317
     241         -1.035291        1.000000        0.00025849        0.00003422        0.00001728
     242         -1.035048        1.000000        0.00436755        0.00009474        0.00000398
     243         -1.035000        1.000000        0.00032939        0.00001735        0.00001012
     244         -1.034454        1.000000        0.00019035        0.00005723        0.00006622
     245         -1.034219        1.000000        0.00035977        0.00006258        0.00004140
     246         -1.033874        1.000000        0.00001770        0.00002514        0.00002163
     247         -1.033507        1.000000        0.00000899        0.00001522        0.00000966
     248         -1.033219        1.000000        0.00015528        0.00001682        0.00002686
     249         -1.033056        1.000000        0.00003271        0.00002609        0.00002068
     250         -1.032307        1.000000        0.00187751        0.00009973        0.00003451
     251         -1.031324        1.000000        0.00000398        0.00001976        0.00001619
     252         -1.031144        1.000000        0.00000133        0.00000098        0.00000205
     253         -1.030643        1.000000        0.00025517        0.00000777        0.00000302
     254         -1.030284        1.000000        0.00004326        0.00005850        0.00005595
     255         -1.030062        1.000000        0.00000565        0.00009023        0.00008625
     256         -1.029818        1.000000        0.00001355        0.00001825        0.00001739
     257         -1.028552        1.000000        0.00010039        0.00000588        0.00000254
     258         -1.027578        1.000000        0.00007290        0.00000409        0.00000049
     259         -1.027121        1.000000        0.00010947        0.00057540        0.00057444
     260         -1.026880        1.000000        0.00000830        0.00001966        0.00002636
     261         -1.026226        1.000000        0.00002846        0.00001310        0.00000556
     262         -1.025765        1.000000        0.00000483        0.00000020        0.00000032
     263         -1.025299        1.000000        0.00003957        0.00000301        0.00000338
     264         -1.025158        1.000000        0.00000254        0.00000599        0.00000403
     265         -1.025007        1.000000        0.00016433        0.00002501        0.00000508
     266         -1.024422        1.000000        0.00000960        0.00000357        0.00000252
     267         -1.023793        1.000000        0.00000972        0.00000278        0.00000073
     268         -1.023594        1.000000        0.00000152        0.00000132        0.00000078
     269         -1.023069        1.000000        0.00014317        0.00000410        0.00000128
     270         -1.022603        1.000000        0.00002759        0.00000274        0.00000146
     271         -1.022074        1.000000        0.00003722        0.00000750        0.00000213
     272         -1.021695        1.000000        0.00003573        0.00000235        0.00000038
     273         -1.021372        1.000000        0.00001816        0.00000178        0.00000240
     274         -1.021076        1.000000        0.00031626        0.00002957        0.00000550
     275         -1.019492        1.000000        0.00000017        0.00000006        0.00000004
     276         -1.018003        1.000000        0.00000419        0.00000120        0.00000044
     277         -1.016408        1.000000        0.00003349        0.00000260        0.00000350
     278         -1.016278        1.000000        0.00000372        0.00000009        0.00000048
     279         -1.015338        1.000000        0.00000223        0.00000045        0.00000022
     280         -1.013851        1.000000        0.00000594        0.00000075        0.00000092
     281         -1.010223        1.000000        0.00000079        0.00000011        0.00000005
     282         -1.009666        1.000000        0.00000070        0.00000015        0.00000017
     283         -1.007726        1.000000        0.00000174        0.00000016        0.00000011
     284         -1.007300        1.000000        0.00002273        0.00000329        0.00000138
     285         -1.006916        1.000000        0.00000000        0.00000003        0.00000000
     286         -0.889442        1.000000        0.00000000        0.00000000        0.00000000
     287         -0.869424        1.000000        0.00000000        0.00000000        0.00000000
     288         -0.867225        1.000000        0.00000000        0.00000000        0.00000000
     289         -0.864755        1.000000        0.00000000        0.00000000        0.00000000
     290         -0.860947        1.000000        0.00000000        0.00000000        0.00000000
     291         -0.846899        1.000000        0.00000000        0.00000000        0.00000000
     292         -0.844423        1.000000        0.00000000        0.00000000        0.00000000
     293         -0.843782        1.000000        0.00000000        0.00000000        0.00000000
     294         -0.840445        1.000000        0.00000000        0.00000000        0.00000000
     295         -0.821748        1.000000        0.00000000        0.00000000        0.00000000
     296         -0.818927        1.000000        0.00000000        0.00000000        0.00000000
     297         -0.814033        1.000000        0.00000000        0.00000000        0.00000000
     298         -0.808071        1.000000        0.00000000        0.00000000        0.00000000
     299         -0.807076        1.000000        0.00000000        0.00000000        0.00000000
     300         -0.806003        1.000000        0.00000000        0.00000000        0.00000000
     301         -0.805433        1.000000        0.00000000        0.00000000        0.00000000
     302         -0.803208        1.000000        0.00000000        0.00000000        0.00000000
     303         -0.802271        1.000000        0.00000000        0.00000000        0.00000000
     304         -0.801014        1.000000        0.00000000        0.00000000        0.00000000
     305         -0.800419        1.000000        0.00000000        0.00000000        0.00000000
     306         -0.800163        1.000000        0.00000000        0.00000000        0.00000000
     307         -0.798966        1.000000        0.00000000        0.00000000        0.00000000