# Projected DOS for list 283 of 1 atoms, at iteration step i = 0, E(Fermi) =    -0.245567 a.u.
#     MO Eigenvalue [a.u.]      Occupation                 s                 p                 d
       1         -3.122063        1.000000        0.00001620        0.00000820        0.00000067
       2         -3.121278        1.000000        0.00048041        0.00061476        0.00002873
       3         -3.121021        1.000000        0.00001491        0.00010220        0.00001619
       4         -3.120578        1.000000        0.00362375        0.00385654        0.00003025
       5         -3.120271        1.000000        0.00001863        0.00079207        0.00011502
       6         -3.119857        1.000000        0.00093785        0.00506514        0.00062837
       7         -3.119652        1.000000        0.00029803        0.00048269        0.00000709
       8         -3.119624        1.000000        0.00041247        0.00100250        0.00005374
       9         -3.119219        1.000000        0.00003954        0.00129060        0.00022130
      10         -3.119023        1.000000        0.00014833        0.00048039        0.00005656
      11         -3.118913        1.000000        0.00000348        0.00007708        0.00002537
      12         -3.118874        1.000000        0.00037799        0.00338019        0.00055935
      13         -3.118317        1.000000        0.00000078        0.00000203        0.00000026
      14         -3.118249        1.000000        0.00000103        0.00000817        0.00000053
      15         -3.117895        1.000000        0.00000005        0.00000016        0.00000009
      16         -3.117383        1.000000        0.00001554        0.00012516        0.00001621
      17         -3.117165        1.000000        0.00000037        0.00000017        0.00000003
      18         -3.116815        1.000000        0.00000000        0.00000789        0.00000089
      19         -3.116436        1.000000        0.00000002        0.00000722        0.00000072
      20         -3.116021        1.000000        0.00000193        0.00000517        0.00000047
      21         -3.115852        1.000000        0.00000028        0.00003258        0.00000305
      22         -3.115668        1.000000        0.00000019        0.00001208        0.00000053
      23         -3.115368        1.000000        0.00000016        0.00000536        0.00000026
      24         -3.115339        1.000000        0.00000066        0.00004077        0.00000171
      25         -3.115041        1.000000        0.00000156        0.00004093        0.00000460
      26         -3.114366        1.000000        0.00000010        0.00000039        0.00000001
      27         -3.113951        1.000000        0.00002781        0.00003201        0.00000900
      28         -3.113764        1.000000        0.00000012        0.00000023        0.00000005
      29         -3.112534        1.000000        0.00000238        0.00000111        0.00000011
      30         -3.111679        1.000000        0.00000001        0.00000001        0.00000000
      31         -1.784233        1.000000        0.00008587        0.00033526        0.00005729
      32         -1.782870        1.000000        0.00033627        0.00102800        0.00010404
      33         -1.782324        1.000000        0.00053027        0.00153617        0.00017739
      34         -1.782130        1.000000        0.00003877        0.00027728        0.00010962
      35         -1.781736        1.000000        0.00000037        0.00002500        0.00001277
      36         -1.781230        1.000000        0.00000009        0.00002664        0.00002116
      37         -1.780847        1.000000        0.00030908        0.00083697        0.00004159
      38         -1.780487        1.000000        0.00000017        0.00003800        0.00002376
      39         -1.780184        1.000000        0.00005271        0.00020693        0.00003820
      40         -1.779550        1.000000        0.00014431        0.00034193        0.00003104
      41         -1.779259        1.000000        0.00002306        0.00005876        0.00000528
      42         -1.778921        1.000000        0.00005073        0.00014073        0.00003622
      43         -1.778390        1.000000        0.00001633        0.00010541        0.00002828
      44         -1.778140        1.000000        0.00008444        0.00019798        0.00001236
      45         -1.777912        1.000000        0.00023752        0.00061103        0.00005863
      46         -1.777514        1.000000        0.00001310        0.00009583        0.00002498
      47         -1.777362        1.000000        0.00002991        0.00014294        0.00003916
      48         -1.776787        1.000000        0.00004141        0.00012672        0.00001368
      49         -1.776537        1.000000        0.00006758        0.00022164        0.00004315
      50         -1.776457        1.000000        0.00000756        0.00014292        0.00004610
      51         -1.776029        1.000000        0.00007283        0.00018085        0.00001666
      52         -1.774038        1.000000        0.00003330        0.00015095        0.00006604
      53         -1.773797        1.000000        0.00073014        0.00130726        0.00002213
      54         -1.773665        1.000000        0.00003325        0.00014996        0.00003559
      55         -1.772725        1.000000        0.00027096        0.00066910        0.00006389
      56         -1.772546        1.000000        0.00026054        0.00102744        0.00024367
      57         -1.772041        1.000000        0.00010297        0.00108947        0.00043170
      58         -1.771662        1.000000        0.00011178        0.00030675        0.00002848
      59         -1.771364        1.000000        0.00000197        0.00072336        0.00026985
      60         -1.770813        1.000000        0.00000728        0.00015581        0.00005796
      61         -1.770640        1.000000        0.00000215        0.00050078        0.00018390
      62         -1.770449        1.000000        0.00000268        0.00020624        0.00007237
      63         -1.770188        1.000000        0.00003942        0.00012815        0.00002699
      64         -1.770126        1.000000        0.00001398        0.00019325        0.00013334
      65         -1.769991        1.000000        0.00011721        0.00135731        0.00054268
      66         -1.769845        1.000000        0.00014022        0.00048473        0.00007106
      67         -1.769763        1.000000        0.00001457        0.00015290        0.00003109
      68         -1.769661        1.000000        0.00000973        0.00029162        0.00013809
      69         -1.769465        1.000000        0.00005024        0.00019866        0.00003526
      70         -1.769351        1.000000        0.00001324        0.00016351        0.00005117
      71         -1.769328        1.000000        0.00001548        0.00016258        0.00006548
      72         -1.769216        1.000000        0.00001795        0.00018120        0.00008513
      73         -1.769129        1.000000        0.00005782        0.00013952        0.00001794
      74         -1.769070        1.000000        0.00004368        0.00011242        0.00001702
      75         -1.768941        1.000000        0.00000674        0.00016559        0.00005485
      76         -1.768822        1.000000        0.00001935        0.00037425        0.00011742
      77         -1.768707        1.000000        0.00000019        0.00015176        0.00004415
      78         -1.768585        1.000000        0.00005282        0.00058275        0.00018558
      79         -1.768439        1.000000        0.00001131        0.00009412        0.00002551
      80         -1.768329        1.000000        0.00003744        0.00008065        0.00001068
      81         -1.768089        1.000000        0.00000656        0.00004541        0.00001384
      82         -1.767883        1.000000        0.00003717        0.00008106        0.00001115
      83         -1.767662        1.000000        0.00000029        0.00001164        0.00000585
      84         -1.767495        1.000000        0.00000337        0.00009007        0.00003418
      85         -1.767311        1.000000        0.00000187        0.00001464        0.00000619
      86         -1.767266        1.000000        0.00002253        0.00011549        0.00002027
      87         -1.767060        1.000000        0.00000961        0.00018611        0.00010660
      88         -1.767025        1.000000        0.00001108        0.00007635        0.00001981
      89         -1.766872        1.000000        0.00006604        0.00031356        0.00014190
      90         -1.766524        1.000000        0.00000003        0.00000282        0.00000233
      91         -1.766405        1.000000        0.00003055        0.00007377        0.00001453
      92         -1.766254        1.000000        0.00000677        0.00009195        0.00003581
      93         -1.766123        1.000000        0.00000515        0.00004999        0.00001391
      94         -1.765857        1.000000        0.00003124        0.00009107        0.00002411
      95         -1.765515        1.000000        0.00000006        0.00001586        0.00001006
      96         -1.765181        1.000000        0.00002084        0.00011483        0.00004975
      97         -1.765105        1.000000        0.00000140        0.00002933        0.00001607
      98         -1.764967        1.000000        0.00000605        0.00003846        0.00002171
      99         -1.764710        1.000000        0.00000061        0.00000508        0.00000172
     100         -1.764440        1.000000        0.00000071        0.00009449        0.00006564
     101         -1.764248        1.000000        0.00001770        0.00004070        0.00001263
     102         -1.763945        1.000000        0.00002914        0.00017425        0.00004770
     103         -1.763804        1.000000        0.00002779        0.00011461        0.00002828
     104         -1.763351        1.000000        0.00000651        0.00007090        0.00002337
     105         -1.763205        1.000000        0.00000227        0.00000968        0.00000791
     106         -1.763107        1.000000        0.00000974        0.00012314        0.00005260
     107         -1.762531        1.000000        0.00008080        0.00043314        0.00013589
     108         -1.762343        1.000000        0.00000595        0.00010043        0.00003586
     109         -1.761453        1.000000        0.00000052        0.00002699        0.00002969
     110         -1.760969        1.000000        0.00000017        0.00000528        0.00000233
     111         -1.760481        1.000000        0.00000991        0.00003136        0.00001004
     112         -1.760009        1.000000        0.00000993        0.00010518        0.00004995
     113         -1.759531        1.000000        0.00000001        0.00001273        0.00000883
     114         -1.759105        1.000000        0.00000559        0.00002344        0.00000478
     115         -1.758777        1.000000        0.00000028        0.00046257        0.00020374
     116         -1.757462        1.000000        0.00000082        0.00012289        0.00012134
     117         -1.756221        1.000000        0.00000012        0.00005400        0.00002240
     118         -1.755333        1.000000        0.00000038        0.00006129        0.00005819
     119         -1.754385        1.000000        0.00000007        0.00004831        0.00002667
     120         -1.752742        1.000000        0.00000000        0.00000326        0.00000257
     121         -1.131181        1.000000        0.00000033        0.00000073        0.00000003
     122         -1.128658        1.000000        0.00000027        0.00000064        0.00000002
     123         -1.128000        1.000000        0.00000038        0.00000086        0.00000003
     124         -1.126427        1.000000        0.00000001        0.00000003        0.00000000
     125         -1.120469        1.000000        0.00000000        0.00000004        0.00000000
     126         -1.119202        1.000000        0.00000000        0.00000002        0.00000000
     127         -1.117081        1.000000        0.00000006        0.00000049        0.00000002
     128         -1.116156        1.000000        0.00000000        0.00000005        0.00000000
     129         -1.115054        1.000000        0.00000017        0.00000024        0.00000001
     130         -1.111818        1.000000        0.00000003        0.00000012        0.00000001
     131         -1.111610        1.000000        0.00000006        0.00000010        0.00000001
     132         -1.110976        1.000000        0.00000011        0.00000009        0.00000001
     133         -1.109888        1.000000        0.00000021        0.00000024        0.00000002
     134         -1.108601        1.000000        0.00000003        0.00000008        0.00000000
     135         -1.108036        1.000000        0.00000003        0.00000002        0.00000000
     136         -1.107349        1.000000        0.00000004        0.00000003        0.00000000
     137         -1.106797        1.000000        0.00000002        0.00000009        0.00000001
     138         -1.106077        1.000000        0.00000008        0.00000008        0.00000001
     139         -1.104162        1.000000        0.00000000        0.00000011        0.00000001
     140         -1.102892        1.000000        0.00000001        0.00000017        0.00000001
     141         -1.102196        1.000000        0.00000002        0.00000017        0.00000001
     142         -1.101581        1.000000        0.00000000        0.00000006        0.00000000
     143         -1.101215        1.000000        0.00000000        0.00000004        0.00000001
     144         -1.099602        1.000000        0.00000003        0.00000008        0.00000000
     145         -1.098107        1.000000        0.00000006        0.00000030        0.00000001
     146         -1.097450        1.000000        0.00000002        0.00000008        0.00000001
     147         -1.097046        1.000000        0.00000000        0.00000000        0.00000000
     148         -1.095795        1.000000        0.00000002        0.00000014        0.00000002
     149         -1.095192        1.000000        0.00000000        0.00000004        0.00000000
     150         -1.093515        1.000000        0.00000002        0.00000013        0.00000001
     151         -1.093123        1.000000        0.00000000        0.00000001        0.00000000
     152         -1.092614        1.000000        0.00000001        0.00000016        0.00000001
     153         -1.091821        1.000000        0.00000000        0.00000005        0.00000000
     154         -1.090761        1.000000        0.00000006        0.00000010        0.00000001
     155         -1.090597        1.000000        0.00000005        0.00000032        0.00000002
     156         -1.089544        1.000000        0.00000023        0.00000083        0.00000003
     157         -1.088154        1.000000        0.00000002        0.00000005        0.00000000
     158         -1.086960        1.000000        0.00000006        0.00000018        0.00000001
     159         -1.086718        1.000000        0.00000002        0.00000004        0.00000000
     160         -1.085525        1.000000        0.00000052        0.00000117        0.00000005
     161         -1.084219        1.000000        0.00000000        0.00000005        0.00000001
     162         -1.082734        1.000000        0.00000001        0.00000005        0.00000000
     163         -1.082381        1.000000        0.00000027        0.00000112        0.00000005
     164         -1.080807        1.000000        0.00000003        0.00000010        0.00000003
     165         -1.080293        1.000000        0.00000008        0.00000024        0.00000004
     166         -1.079453        1.000000        0.00000001        0.00000002        0.00000000
     167         -1.078246        1.000000        0.00000002        0.00000012        0.00000001
     168         -1.077774        1.000000        0.00000021        0.00000003        0.00000002
     169         -1.077143        1.000000        0.00000006        0.00000004        0.00000000
     170         -1.076426        1.000000        0.00000001        0.00000005        0.00000000
     171         -1.076145        1.000000        0.00000006        0.00000006        0.00000000
     172         -1.074526        1.000000        0.00000007        0.00000017        0.00000001
     173         -1.074368        1.000000        0.00000001        0.00000002        0.00000001
     174         -1.073652        1.000000        0.00000005        0.00000013        0.00000001
     175         -1.072808        1.000000        0.00000002        0.00000006        0.00000001
     176         -1.072152        1.000000        0.00000000        0.00000002        0.00000000
     177         -1.071192        1.000000        0.00000001        0.00000008        0.00000001
     178         -1.070444        1.000000        0.00000001        0.00000002        0.00000000
     179         -1.070141        1.000000        0.00000007        0.00000002        0.00000000
     180         -1.069416        1.000000        0.00000000        0.00000004        0.00000000
     181         -1.069179        1.000000        0.00000005        0.00000006        0.00000001
     182         -1.067610        1.000000        0.00000008        0.00000002        0.00000000
     183         -1.066240        1.000000        0.00000004        0.00000005        0.00000000
     184         -1.065124        1.000000        0.00000004        0.00000007        0.00000000
     185         -1.064565        1.000000        0.00000012        0.00000008        0.00000001
     186         -1.063575        1.000000        0.00000016        0.00000084        0.00000003
     187         -1.062901        1.000000        0.00000020        0.00000010        0.00000001
     188         -1.062274        1.000000        0.00000010        0.00000035        0.00000002
     189         -1.061481        1.000000        0.00000005        0.00000035        0.00000001
     190         -1.061312        1.000000        0.00000034        0.00000031        0.00000003
     191         -1.060592        1.000000        0.00000000        0.00000001        0.00000000
     192         -1.059297        1.000000        0.00000005        0.00000031        0.00000001
     193         -1.058643        1.000000        0.00000042        0.00000046        0.00000003
     194         -1.058262        1.000000        0.00000002        0.00000017        0.00000001
     195         -1.057127        1.000000        0.00000032        0.00000032        0.00000003
     196         -1.056224        1.000000        0.00000078        0.00000017        0.00000005
     197         -1.056050        1.000000        0.00000038        0.00000299        0.00000011
     198         -1.054881        1.000000        0.00000036        0.00000285        0.00000010
     199         -1.054669        1.000000        0.00000006        0.00000067        0.00000003
     200         -1.053605        1.000000        0.00000005        0.00000016        0.00000002
     201         -1.053457        1.000000        0.00000008        0.00000006        0.00000001
     202         -1.052589        1.000000        0.00000022        0.00000009        0.00000002
     203         -1.052089        1.000000        0.00000001        0.00000002        0.00000000
     204         -1.051299        1.000000        0.00000002        0.00000002        0.00000000
     205         -1.050676        1.000000        0.00000004        0.00000028        0.00000001
     206         -1.050307        1.000000        0.00000027        0.00000036        0.00000001
     207         -1.049921        1.000000        0.00000001        0.00000005        0.00000001
     208         -1.049485        1.000000        0.00000002        0.00000007        0.00000000
     209         -1.049126        1.000000        0.00000008        0.00000012        0.00000000
     210         -1.048445        1.000000        0.00000000        0.00000003        0.00000000
     211         -1.048201        1.000000        0.00000004        0.00000003        0.00000000
     212         -1.047911        1.000000        0.00000003        0.00000005        0.00000000
     213         -1.047620        1.000000        0.00000008        0.00000015        0.00000002
     214         -1.046931        1.000000        0.00000007        0.00000022        0.00000002
     215         -1.046733        1.000000        0.00000007        0.00000008        0.00000001
     216         -1.046634        1.000000        0.00000010        0.00000034        0.00000001
     217         -1.045930        1.000000        0.00000000        0.00000004        0.00000000
     218         -1.045069        1.000000        0.00000006        0.00000034        0.00000001
     219         -1.044350        1.000000        0.00000005        0.00000009        0.00000000
     220         -1.043623        1.000000        0.00000002        0.00000005        0.00000001
     221         -1.043421        1.000000        0.00000072        0.00000076        0.00000005
     222         -1.042778        1.000000        0.00000001        0.00000004        0.00000000
     223         -1.042701        1.000000        0.00000004        0.00000002        0.00000001
     224         -1.042424        1.000000        0.00000008        0.00000002        0.00000002
     225         -1.041682        1.000000        0.00000000        0.00000001        0.00000000
     226         -1.041498        1.000000        0.00000000        0.00000004        0.00000001
     227         -1.040837        1.000000        0.00000006        0.00000007        0.00000000
     228         -1.040496        1.000000        0.00000001        0.00000000        0.00000000
     229         -1.040151        1.000000        0.00000007        0.00000003        0.00000002
     230         -1.039686        1.000000        0.00000001        0.00000001        0.00000001
     231         -1.038961        1.000000        0.00000004        0.00000005        0.00000001
     232         -1.038553        1.000000        0.00000000        0.00000002        0.00000001
     233         -1.038476        1.000000        0.00000004        0.00000006        0.00000002
     234         -1.038152        1.000000        0.00000000        0.00000001        0.00000000
     235         -1.038041        1.000000        0.00000000        0.00000001        0.00000000
     236         -1.036855        1.000000        0.00000007        0.00000011        0.00000002
     237         -1.036488        1.000000        0.00000004        0.00000007        0.00000003
     238         -1.036186        1.000000        0.00000001        0.00000004        0.00000000
     239         -1.036068        1.000000        0.00000000        0.00000001        0.00000000
     240         -1.035757        1.000000        0.00000009        0.00000052        0.00000002
     241         -1.035291        1.000000        0.00000004        0.00000009        0.00000000
     242         -1.035048        1.000000        0.00000004        0.00000021        0.00000001
     243         -1.035000        1.000000        0.00000002        0.00000009        0.00000000
     244         -1.034454        1.000000        0.00000002        0.00000000        0.00000000
     245         -1.034219        1.000000        0.00000002        0.00000005        0.00000001
     246         -1.033874        1.000000        0.00000016        0.00000024        0.00000001
     247         -1.033507        1.000000        0.00000000        0.00000000        0.00000000
     248         -1.033219        1.000000        0.00000009        0.00000007        0.00000001
     249         -1.033056        1.000000        0.00000006        0.00000009        0.00000000
     250         -1.032307        1.000000        0.00000007        0.00000012        0.00000001
     251         -1.031324        1.000000        0.00000015        0.00000022        0.00000001
     252         -1.031144        1.000000        0.00000002        0.00000001        0.00000000
     253         -1.030643        1.000000        0.00000003        0.00000013        0.00000001
     254         -1.030284        1.000000        0.00000003        0.00000012        0.00000002
     255         -1.030062        1.000000        0.00000002        0.00000007        0.00000001
     256         -1.029818        1.000000        0.00000001        0.00000009        0.00000001
     257         -1.028552        1.000000        0.00000001        0.00000006        0.00000000
     258         -1.027578        1.000000        0.00000002        0.00000008        0.00000000
     259         -1.027121        1.000000        0.00000000        0.00000000        0.00000000
     260         -1.026880        1.000000        0.00000000        0.00000001        0.00000000
     261         -1.026226        1.000000        0.00000000        0.00000002        0.00000000
     262         -1.025765        1.000000        0.00000000        0.00000000        0.00000000
     263         -1.025299        1.000000        0.00000000        0.00000000        0.00000000
     264         -1.025158        1.000000        0.00000001        0.00000001        0.00000000
     265         -1.025007        1.000000        0.00000002        0.00000000        0.00000000
     266         -1.024422        1.000000        0.00000000        0.00000002        0.00000000
     267         -1.023793        1.000000        0.00000000        0.00000000        0.00000000
     268         -1.023594        1.000000        0.00000003        0.00000002        0.00000000
     269         -1.023069        1.000000        0.00000001        0.00000004        0.00000000
     270         -1.022603        1.000000        0.00000000        0.00000001        0.00000000
     271         -1.022074        1.000000        0.00000000        0.00000004        0.00000000
     272         -1.021695        1.000000        0.00000000        0.00000000        0.00000000
     273         -1.021372        1.000000        0.00000000        0.00000000        0.00000000
     274         -1.021076        1.000000        0.00000000        0.00000000        0.00000000
     275         -1.019492        1.000000        0.00000008        0.00000031        0.00000002
     276         -1.018003        1.000000        0.00000000        0.00000000        0.00000000
     277         -1.016408        1.000000        0.00000000        0.00000000        0.00000000
     278         -1.016278        1.000000        0.00000000        0.00000000        0.00000000
     279         -1.015338        1.000000        0.00000004        0.00000015        0.00000001
     280         -1.013851        1.000000        0.00000000        0.00000000        0.00000000
     281         -1.010223        1.000000        0.00000003        0.00000011        0.00000001
     282         -1.009666        1.000000        0.00000000        0.00000000        0.00000000
     283         -1.007726        1.000000        0.00000000        0.00000000        0.00000000
     284         -1.007300        1.000000        0.00000000        0.00000000        0.00000000
     285         -1.006916        1.000000        0.00000000        0.00000000        0.00000000
     286         -0.889442        1.000000        0.00648049        0.00036665        0.00001394
     287         -0.869424        1.000000        0.00728536        0.00063136        0.00003435
     288         -0.867225        1.000000        0.00696305        0.00071540        0.00000884
     289         -0.864755        1.000000        0.00484298        0.00109756        0.00003036
     290         -0.860947        1.000000        0.00280586        0.00083651        0.00003564
     291         -0.846899        1.000000        0.01120196        0.00139578        0.00002122
     292         -0.844423        1.000000        0.00008133        0.00005211        0.00004859
     293         -0.843782        1.000000        0.00000367        0.00132686        0.00003000
     294         -0.840445        1.000000        0.01170280        0.00104566        0.00001737
     295         -0.821748        1.000000        0.01111333        0.00023117        0.00012998
     296         -0.818927        1.000000        0.00019035        0.00081493        0.00002071
     297         -0.814033        1.000000        0.00911538        0.00018115        0.00012876
     298         -0.808071        1.000000        0.00824101        0.00113929        0.00013253
     299         -0.807076        1.000000        0.00000059        0.00075398        0.00007812
     300         -0.806003        1.000000        0.00000200        0.00090639        0.00001916
     301         -0.805433        1.000000        0.00011712        0.00048380        0.00004574
     302         -0.803208        1.000000        0.00673060        0.00016527        0.00009087
     303         -0.802271        1.000000        0.00567313        0.00035195        0.00002362
     304         -0.801014        1.000000        0.00004234        0.00030619        0.00004056
     305         -0.800419        1.000000        0.00286209        0.00100449        0.00006134
     306         -0.800163        1.000000        0.01332171        0.00055358        0.00004059
     307         -0.798966        1.000000        0.01164433        0.00029034        0.00006733