# Projected DOS for list 50 of 1 atoms, at iteration step i = 0, E(Fermi) =    -0.245567 a.u.
#     MO Eigenvalue [a.u.]      Occupation                 s                 p                 d
       1         -3.122063        1.000000        0.00000000        0.00000000        0.00000000
       2         -3.121278        1.000000        0.00000000        0.00000000        0.00000000
       3         -3.121021        1.000000        0.00000000        0.00000000        0.00000000
       4         -3.120578        1.000000        0.00000000        0.00000000        0.00000000
       5         -3.120271        1.000000        0.00000000        0.00000000        0.00000000
       6         -3.119857        1.000000        0.00000000        0.00000000        0.00000000
       7         -3.119652        1.000000        0.00000000        0.00000000        0.00000000
       8         -3.119624        1.000000        0.00000000        0.00000000        0.00000000
       9         -3.119219        1.000000        0.00000000        0.00000000        0.00000000
      10         -3.119023        1.000000        0.00000000        0.00000000        0.00000000
      11         -3.118913        1.000000        0.00000000        0.00000000        0.00000000
      12         -3.118874        1.000000        0.00000000        0.00000000        0.00000000
      13         -3.118317        1.000000        0.00000000        0.00000001        0.00000000
      14         -3.118249        1.000000        0.00000000        0.00000000        0.00000000
      15         -3.117895        1.000000        0.00000000        0.00000000        0.00000000
      16         -3.117383        1.000000        0.00000000        0.00000000        0.00000000
      17         -3.117165        1.000000        0.00000000        0.00000000        0.00000000
      18         -3.116815        1.000000        0.00000000        0.00000000        0.00000000
      19         -3.116436        1.000000        0.00000000        0.00000000        0.00000000
      20         -3.116021        1.000000        0.00000000        0.00000000        0.00000000
      21         -3.115852        1.000000        0.00000000        0.00000000        0.00000000
      22         -3.115668        1.000000        0.00000000        0.00000001        0.00000000
      23         -3.115368        1.000000        0.00000000        0.00000000        0.00000000
      24         -3.115339        1.000000        0.00000000        0.00000000        0.00000000
      25         -3.115041        1.000000        0.00000000        0.00000000        0.00000000
      26         -3.114366        1.000000        0.00000000        0.00000000        0.00000000
      27         -3.113951        1.000000        0.00000000        0.00000000        0.00000000
      28         -3.113764        1.000000        0.00000000        0.00000000        0.00000000
      29         -3.112534        1.000000        0.00000000        0.00000000        0.00000000
      30         -3.111679        1.000000        0.00000000        0.00000000        0.00000000
      31         -1.784233        1.000000        0.00000000        0.00000000        0.00000000
      32         -1.782870        1.000000        0.00000000        0.00000000        0.00000000
      33         -1.782324        1.000000        0.00000000        0.00000000        0.00000000
      34         -1.782130        1.000000        0.00000000        0.00000000        0.00000000
      35         -1.781736        1.000000        0.00000000        0.00000000        0.00000000
      36         -1.781230        1.000000        0.00000000        0.00000000        0.00000000
      37         -1.780847        1.000000        0.00000000        0.00000000        0.00000000
      38         -1.780487        1.000000        0.00000000        0.00000000        0.00000000
      39         -1.780184        1.000000        0.00000000        0.00000000        0.00000000
      40         -1.779550        1.000000        0.00000000        0.00000000        0.00000000
      41         -1.779259        1.000000        0.00000000        0.00000000        0.00000000
      42         -1.778921        1.000000        0.00000000        0.00000000        0.00000000
      43         -1.778390        1.000000        0.00000000        0.00000000        0.00000000
      44         -1.778140        1.000000        0.00000000        0.00000000        0.00000000
      45         -1.777912        1.000000        0.00000000        0.00000000        0.00000000
      46         -1.777514        1.000000        0.00000000        0.00000000        0.00000000
      47         -1.777362        1.000000        0.00000000        0.00000000        0.00000000
      48         -1.776787        1.000000        0.00000000        0.00000000        0.00000000
      49         -1.776537        1.000000        0.00000000        0.00000000        0.00000000
      50         -1.776457        1.000000        0.00000000        0.00000000        0.00000000
      51         -1.776029        1.000000        0.00000000        0.00000000        0.00000000
      52         -1.774038        1.000000        0.00000000        0.00000000        0.00000000
      53         -1.773797        1.000000        0.00000000        0.00000000        0.00000000
      54         -1.773665        1.000000        0.00000000        0.00000000        0.00000000
      55         -1.772725        1.000000        0.00000000        0.00000000        0.00000000
      56         -1.772546        1.000000        0.00000000        0.00000000        0.00000000
      57         -1.772041        1.000000        0.00000000        0.00000000        0.00000000
      58         -1.771662        1.000000        0.00000000        0.00000000        0.00000000
      59         -1.771364        1.000000        0.00000000        0.00000000        0.00000000
      60         -1.770813        1.000000        0.00000000        0.00000000        0.00000000
      61         -1.770640        1.000000        0.00000000        0.00000000        0.00000000
      62         -1.770449        1.000000        0.00000000        0.00000000        0.00000000
      63         -1.770188        1.000000        0.00000000        0.00000000        0.00000000
      64         -1.770126        1.000000        0.00000000        0.00000000        0.00000000
      65         -1.769991        1.000000        0.00000000        0.00000000        0.00000000
      66         -1.769845        1.000000        0.00000000        0.00000000        0.00000000
      67         -1.769763        1.000000        0.00000000        0.00000000        0.00000000
      68         -1.769661        1.000000        0.00000000        0.00000000        0.00000000
      69         -1.769465        1.000000        0.00000000        0.00000000        0.00000000
      70         -1.769351        1.000000        0.00000000        0.00000000        0.00000000
      71         -1.769328        1.000000        0.00000000        0.00000000        0.00000000
      72         -1.769216        1.000000        0.00000000        0.00000000        0.00000000
      73         -1.769129        1.000000        0.00000000        0.00000000        0.00000000
      74         -1.769070        1.000000        0.00000000        0.00000000        0.00000000
      75         -1.768941        1.000000        0.00000000        0.00000000        0.00000000
      76         -1.768822        1.000000        0.00000000        0.00000000        0.00000000
      77         -1.768707        1.000000        0.00000000        0.00000000        0.00000000
      78         -1.768585        1.000000        0.00000000        0.00000000        0.00000000
      79         -1.768439        1.000000        0.00000000        0.00000000        0.00000000
      80         -1.768329        1.000000        0.00000000        0.00000000        0.00000000
      81         -1.768089        1.000000        0.00000000        0.00000000        0.00000000
      82         -1.767883        1.000000        0.00000000        0.00000000        0.00000000
      83         -1.767662        1.000000        0.00000000        0.00000000        0.00000000
      84         -1.767495        1.000000        0.00000000        0.00000000        0.00000000
      85         -1.767311        1.000000        0.00000000        0.00000000        0.00000000
      86         -1.767266        1.000000        0.00000000        0.00000000        0.00000000
      87         -1.767060        1.000000        0.00000000        0.00000000        0.00000000
      88         -1.767025        1.000000        0.00000000        0.00000000        0.00000000
      89         -1.766872        1.000000        0.00000000        0.00000000        0.00000000
      90         -1.766524        1.000000        0.00000000        0.00000000        0.00000000
      91         -1.766405        1.000000        0.00000000        0.00000000        0.00000000
      92         -1.766254        1.000000        0.00000000        0.00000000        0.00000000
      93         -1.766123        1.000000        0.00000000        0.00000000        0.00000000
      94         -1.765857        1.000000        0.00000000        0.00000000        0.00000000
      95         -1.765515        1.000000        0.00000000        0.00000000        0.00000000
      96         -1.765181        1.000000        0.00000000        0.00000000        0.00000000
      97         -1.765105        1.000000        0.00000000        0.00000000        0.00000000
      98         -1.764967        1.000000        0.00000000        0.00000000        0.00000000
      99         -1.764710        1.000000        0.00000000        0.00000000        0.00000000
     100         -1.764440        1.000000        0.00000000        0.00000000        0.00000000
     101         -1.764248        1.000000        0.00000000        0.00000000        0.00000000
     102         -1.763945        1.000000        0.00000000        0.00000000        0.00000000
     103         -1.763804        1.000000        0.00000000        0.00000000        0.00000000
     104         -1.763351        1.000000        0.00000000        0.00000000        0.00000000
     105         -1.763205        1.000000        0.00000000        0.00000000        0.00000000
     106         -1.763107        1.000000        0.00000000        0.00000000        0.00000000
     107         -1.762531        1.000000        0.00000000        0.00000000        0.00000000
     108         -1.762343        1.000000        0.00000000        0.00000000        0.00000000
     109         -1.761453        1.000000        0.00000000        0.00000000        0.00000000
     110         -1.760969        1.000000        0.00000000        0.00000000        0.00000000
     111         -1.760481        1.000000        0.00000000        0.00000000        0.00000000
     112         -1.760009        1.000000        0.00000000        0.00000000        0.00000000
     113         -1.759531        1.000000        0.00000000        0.00000000        0.00000000
     114         -1.759105        1.000000        0.00000000        0.00000000        0.00000000
     115         -1.758777        1.000000        0.00000000        0.00000000        0.00000000
     116         -1.757462        1.000000        0.00000000        0.00000000        0.00000000
     117         -1.756221        1.000000        0.00000000        0.00000000        0.00000000
     118         -1.755333        1.000000        0.00000000        0.00000000        0.00000000
     119         -1.754385        1.000000        0.00000000        0.00000000        0.00000000
     120         -1.752742        1.000000        0.00000000        0.00000000        0.00000000
     121         -1.131181        1.000000        0.00568504        0.00338803        0.00071888
     122         -1.128658        1.000000        0.00488584        0.00329840        0.00072890
     123         -1.128000        1.000000        0.00008785        0.00007420        0.00001707
     124         -1.126427        1.000000        0.00022741        0.00043711        0.00009435
     125         -1.120469        1.000000        0.00307214        0.00046999        0.00036432
     126         -1.119202        1.000000        0.00043249        0.00022665        0.00007346
     127         -1.117081        1.000000        0.00119415        0.00041688        0.00033511
     128         -1.116156        1.000000        0.00076022        0.00075881        0.00015098
     129         -1.115054        1.000000        0.04139788        0.00566673        0.00590370
     130         -1.111818        1.000000        0.00363599        0.00136057        0.00044591
     131         -1.111610        1.000000        0.00020894        0.00507812        0.00116059
     132         -1.110976        1.000000        0.00121137        0.00035924        0.00010659
     133         -1.109888        1.000000        0.00444502        0.00123420        0.00033872
     134         -1.108601        1.000000        0.00218778        0.00066790        0.00021897
     135         -1.108036        1.000000        0.00470964        0.00179167        0.00054553
     136         -1.107349        1.000000        0.00173602        0.00565116        0.00179085
     137         -1.106797        1.000000        0.00001405        0.00377655        0.00079267
     138         -1.106077        1.000000        0.00000353        0.00655034        0.00129983
     139         -1.104162        1.000000        0.00028340        0.00060070        0.00033046
     140         -1.102892        1.000000        0.00627116        0.00412758        0.00075928
     141         -1.102196        1.000000        0.00262132        0.00230666        0.00051727
     142         -1.101581        1.000000        0.00046157        0.00146096        0.00036231
     143         -1.101215        1.000000        0.00160366        0.00248898        0.00043430
     144         -1.099602        1.000000        0.00144180        0.00449727        0.00247724
     145         -1.098107        1.000000        0.00028626        0.00115871        0.00026269
     146         -1.097450        1.000000        0.00054891        0.00146209        0.00071409
     147         -1.097046        1.000000        0.00531042        0.00373070        0.00107572
     148         -1.095795        1.000000        0.00219286        0.00191963        0.00042782
     149         -1.095192        1.000000        0.00081598        0.00137191        0.00034204
     150         -1.093515        1.000000        0.00221227        0.00261778        0.00093050
     151         -1.093123        1.000000        0.00281767        0.00497102        0.00129219
     152         -1.092614        1.000000        0.00087519        0.00181392        0.00107699
     153         -1.091821        1.000000        0.00136835        0.00250339        0.00078609
     154         -1.090761        1.000000        0.00067900        0.00291307        0.00140755
     155         -1.090597        1.000000        0.00176612        0.00220839        0.00027546
     156         -1.089544        1.000000        0.00031397        0.00379547        0.00096981
     157         -1.088154        1.000000        0.00045761        0.00220171        0.00047409
     158         -1.086960        1.000000        0.00021159        0.00002785        0.00002704
     159         -1.086718        1.000000        0.00026431        0.00365138        0.00086987
     160         -1.085525        1.000000        0.00034972        0.00297221        0.00059231
     161         -1.084219        1.000000        0.00206404        0.00109898        0.00028100
     162         -1.082734        1.000000        0.00005523        0.00230084        0.00071616
     163         -1.082381        1.000000        0.00000149        0.00234149        0.00076805
     164         -1.080807        1.000000        0.00035293        0.00140369        0.00050605
     165         -1.080293        1.000000        0.00039555        0.00132760        0.00033984
     166         -1.079453        1.000000        0.00030945        0.01377768        0.00312821
     167         -1.078246        1.000000        0.00000318        0.00063919        0.00028024
     168         -1.077774        1.000000        0.00323672        0.00125316        0.00031822
     169         -1.077143        1.000000        0.00021645        0.00176487        0.00043418
     170         -1.076426        1.000000        0.00121342        0.00176908        0.00029866
     171         -1.076145        1.000000        0.00002137        0.00342909        0.00082450
     172         -1.074526        1.000000        0.00025829        0.00285530        0.00108322
     173         -1.074368        1.000000        0.00003649        0.00227220        0.00084213
     174         -1.073652        1.000000        0.00001002        0.00245968        0.00076847
     175         -1.072808        1.000000        0.00110750        0.00307746        0.00113981
     176         -1.072152        1.000000        0.00186861        0.00159605        0.00057105
     177         -1.071192        1.000000        0.00081403        0.00279857        0.00090229
     178         -1.070444        1.000000        0.00005394        0.00242810        0.00107819
     179         -1.070141        1.000000        0.00255234        0.00502721        0.00184848
     180         -1.069416        1.000000        0.00245110        0.00836624        0.00296408
     181         -1.069179        1.000000        0.00022917        0.00453469        0.00115177
     182         -1.067610        1.000000        0.00000079        0.00095677        0.00024559
     183         -1.066240        1.000000        0.00039275        0.01112608        0.00264195
     184         -1.065124        1.000000        0.00074875        0.00157658        0.00054496
     185         -1.064565        1.000000        0.00042164        0.00401674        0.00118125
     186         -1.063575        1.000000        0.00000524        0.00155911        0.00072753
     187         -1.062901        1.000000        0.00002317        0.00222255        0.00068214
     188         -1.062274        1.000000        0.00002593        0.00353638        0.00166934
     189         -1.061481        1.000000        0.00001055        0.00184844        0.00108360
     190         -1.061312        1.000000        0.00000609        0.00199698        0.00101389
     191         -1.060592        1.000000        0.00008144        0.00414215        0.00215352
     192         -1.059297        1.000000        0.00028410        0.00056180        0.00011330
     193         -1.058643        1.000000        0.00017637        0.00787570        0.00482966
     194         -1.058262        1.000000        0.00107077        0.00384274        0.00132792
     195         -1.057127        1.000000        0.00047824        0.00011086        0.00003715
     196         -1.056224        1.000000        0.00002568        0.00297160        0.00072570
     197         -1.056050        1.000000        0.00001841        0.00140082        0.00040485
     198         -1.054881        1.000000        0.00008206        0.00269452        0.00134467
     199         -1.054669        1.000000        0.00000601        0.00289931        0.00071248
     200         -1.053605        1.000000        0.00001255        0.00233269        0.00124144
     201         -1.053457        1.000000        0.00006151        0.00159297        0.00059935
     202         -1.052589        1.000000        0.00001191        0.00214404        0.00071280
     203         -1.052089        1.000000        0.00020568        0.00554759        0.00203004
     204         -1.051299        1.000000        0.00002603        0.00339475        0.00140802
     205         -1.050676        1.000000        0.00020260        0.00519055        0.00213311
     206         -1.050307        1.000000        0.00035451        0.00055995        0.00036306
     207         -1.049921        1.000000        0.00000791        0.00003082        0.00001150
     208         -1.049485        1.000000        0.00003708        0.00283482        0.00164785
     209         -1.049126        1.000000        0.00049561        0.00188941        0.00090300
     210         -1.048445        1.000000        0.00016534        0.00579908        0.00306081
     211         -1.048201        1.000000        0.00007725        0.00221006        0.00051867
     212         -1.047911        1.000000        0.00023195        0.00796099        0.00247452
     213         -1.047620        1.000000        0.00008563        0.00101515        0.00083321
     214         -1.046931        1.000000        0.00004021        0.01303174        0.00309633
     215         -1.046733        1.000000        0.00010729        0.00516831        0.00327818
     216         -1.046634        1.000000        0.00002953        0.00357975        0.00117245
     217         -1.045930        1.000000        0.00014043        0.00483756        0.00276301
     218         -1.045069        1.000000        0.00010224        0.00078231        0.00056111
     219         -1.044350        1.000000        0.00002965        0.00441830        0.00238518
     220         -1.043623        1.000000        0.00004889        0.00698928        0.00179975
     221         -1.043421        1.000000        0.00001324        0.00189888        0.00051321
     222         -1.042778        1.000000        0.00000649        0.00199008        0.00092724
     223         -1.042701        1.000000        0.00000589        0.00141155        0.00080199
     224         -1.042424        1.000000        0.00001374        0.00371323        0.00206213
     225         -1.041682        1.000000        0.00005537        0.00369333        0.00216767
     226         -1.041498        1.000000        0.00002884        0.00205365        0.00123013
     227         -1.040837        1.000000        0.00004853        0.00119438        0.00066313
     228         -1.040496        1.000000        0.00000874        0.00112431        0.00065240
     229         -1.040151        1.000000        0.00001783        0.00264357        0.00194800
     230         -1.039686        1.000000        0.00000041        0.00183963        0.00122904
     231         -1.038961        1.000000        0.00001582        0.00388731        0.00251883
     232         -1.038553        1.000000        0.00001454        0.00047214        0.00013503
     233         -1.038476        1.000000        0.00000916        0.00042680        0.00019095
     234         -1.038152        1.000000        0.00011395        0.00140553        0.00059711
     235         -1.038041        1.000000        0.00000163        0.00302260        0.00225643
     236         -1.036855        1.000000        0.00009476        0.00055052        0.00023996
     237         -1.036488        1.000000        0.00000359        0.00638423        0.00411398
     238         -1.036186        1.000000        0.00003006        0.00021731        0.00008210
     239         -1.036068        1.000000        0.00000332        0.00007333        0.00001777
     240         -1.035757        1.000000        0.00001420        0.00052172        0.00032499
     241         -1.035291        1.000000        0.00000013        0.00049091        0.00027200
     242         -1.035048        1.000000        0.00002490        0.00153785        0.00092627
     243         -1.035000        1.000000        0.00000520        0.00050071        0.00019310
     244         -1.034454        1.000000        0.00000982        0.00023327        0.00016324
     245         -1.034219        1.000000        0.00000471        0.00057968        0.00031710
     246         -1.033874        1.000000        0.00005043        0.00089567        0.00061984
     247         -1.033507        1.000000        0.00014341        0.00193595        0.00117685
     248         -1.033219        1.000000        0.00000110        0.00073635        0.00049991
     249         -1.033056        1.000000        0.00004706        0.00331704        0.00223855
     250         -1.032307        1.000000        0.00000161        0.00073196        0.00049606
     251         -1.031324        1.000000        0.00003093        0.00086798        0.00033289
     252         -1.031144        1.000000        0.00000809        0.00052655        0.00022165
     253         -1.030643        1.000000        0.00000101        0.00123930        0.00085307
     254         -1.030284        1.000000        0.00000229        0.00002473        0.00001470
     255         -1.030062        1.000000        0.00000160        0.00033736        0.00021833
     256         -1.029818        1.000000        0.00000364        0.00001520        0.00000683
     257         -1.028552        1.000000        0.00009446        0.00134438        0.00069733
     258         -1.027578        1.000000        0.00000381        0.00022181        0.00011624
     259         -1.027121        1.000000        0.00000109        0.00004243        0.00002899
     260         -1.026880        1.000000        0.00001324        0.00094836        0.00046746
     261         -1.026226        1.000000        0.00000928        0.00010384        0.00005182
     262         -1.025765        1.000000        0.00003667        0.00214561        0.00094947
     263         -1.025299        1.000000        0.00000144        0.00009597        0.00006241
     264         -1.025158        1.000000        0.00000097        0.00004372        0.00002825
     265         -1.025007        1.000000        0.00001124        0.00023485        0.00009146
     266         -1.024422        1.000000        0.00002864        0.00023777        0.00011793
     267         -1.023793        1.000000        0.00014894        0.00132180        0.00055034
     268         -1.023594        1.000000        0.00000006        0.00001936        0.00000585
     269         -1.023069        1.000000        0.00002214        0.00073076        0.00035696
     270         -1.022603        1.000000        0.00016927        0.00225280        0.00092915
     271         -1.022074        1.000000        0.00000077        0.00000350        0.00000289
     272         -1.021695        1.000000        0.00000267        0.00002830        0.00001493
     273         -1.021372        1.000000        0.00000144        0.00006089        0.00004342
     274         -1.021076        1.000000        0.00000489        0.00004431        0.00001622
     275         -1.019492        1.000000        0.00000013        0.00000272        0.00000157
     276         -1.018003        1.000000        0.00001077        0.00010038        0.00005044
     277         -1.016408        1.000000        0.00001027        0.00029939        0.00014536
     278         -1.016278        1.000000        0.00020357        0.00404869        0.00188843
     279         -1.015338        1.000000        0.00000263        0.00016163        0.00007131
     280         -1.013851        1.000000        0.00581380        0.10295265        0.04807003
     281         -1.010223        1.000000        0.00000085        0.00001583        0.00000702
     282         -1.009666        1.000000        0.00000583        0.00014974        0.00007784
     283         -1.007726        1.000000        0.00000084        0.00000581        0.00000294
     284         -1.007300        1.000000        0.00000265        0.00005291        0.00002877
     285         -1.006916        1.000000        0.00001160        0.00022553        0.00011171
     286         -0.889442        1.000000        0.00000001        0.00000003        0.00000000
     287         -0.869424        1.000000        0.00000000        0.00000000        0.00000000
     288         -0.867225        1.000000        0.00000000        0.00000001        0.00000000
     289         -0.864755        1.000000        0.00000000        0.00000000        0.00000000
     290         -0.860947        1.000000        0.00000000        0.00000000        0.00000000
     291         -0.846899        1.000000        0.00000000        0.00000000        0.00000000
     292         -0.844423        1.000000        0.00000000        0.00000000        0.00000000
     293         -0.843782        1.000000        0.00000000        0.00000000        0.00000000
     294         -0.840445        1.000000        0.00000000        0.00000000        0.00000000
     295         -0.821748        1.000000        0.00000000        0.00000000        0.00000000
     296         -0.818927        1.000000        0.00000000        0.00000000        0.00000000
     297         -0.814033        1.000000        0.00000001        0.00000003        0.00000000
     298         -0.808071        1.000000        0.00000000        0.00000000        0.00000000
     299         -0.807076        1.000000        0.00000000        0.00000000        0.00000000
     300         -0.806003        1.000000        0.00000000        0.00000000        0.00000000
     301         -0.805433        1.000000        0.00000000        0.00000000        0.00000000
     302         -0.803208        1.000000        0.00000000        0.00000000        0.00000000
     303         -0.802271        1.000000        0.00000000        0.00000000        0.00000000
     304         -0.801014        1.000000        0.00000000        0.00000000        0.00000000
     305         -0.800419        1.000000        0.00000000        0.00000000        0.00000000
     306         -0.800163        1.000000        0.00000000        0.00000000        0.00000000
     307         -0.798966        1.000000        0.00000000        0.00000000        0.00000000