# Projected DOS for list 358 of 1 atoms, at iteration step i = 0, E(Fermi) =    -0.245567 a.u.
#     MO Eigenvalue [a.u.]      Occupation                 s                 p                 d
       1         -3.122063        1.000000        0.00000002        0.00000005        0.00000001
       2         -3.121278        1.000000        0.00000001        0.00000001        0.00000000
       3         -3.121021        1.000000        0.00000000        0.00000001        0.00000000
       4         -3.120578        1.000000        0.00000001        0.00000001        0.00000000
       5         -3.120271        1.000000        0.00000000        0.00000000        0.00000000
       6         -3.119857        1.000000        0.00000001        0.00000003        0.00000000
       7         -3.119652        1.000000        0.00000011        0.00000043        0.00000012
       8         -3.119624        1.000000        0.00000000        0.00000013        0.00000001
       9         -3.119219        1.000000        0.00000000        0.00000000        0.00000001
      10         -3.119023        1.000000        0.00000001        0.00000002        0.00000002
      11         -3.118913        1.000000        0.00000002        0.00000002        0.00000002
      12         -3.118874        1.000000        0.00000000        0.00000000        0.00000000
      13         -3.118317        1.000000        0.00000006        0.00000009        0.00000010
      14         -3.118249        1.000000        0.00000006        0.00000008        0.00000007
      15         -3.117895        1.000000        0.00000004        0.00000009        0.00000003
      16         -3.117383        1.000000        0.00000004        0.00000007        0.00000001
      17         -3.117165        1.000000        0.00000003        0.00000029        0.00000005
      18         -3.116815        1.000000        0.00000279        0.00001202        0.00000157
      19         -3.116436        1.000000        0.00000034        0.00000188        0.00000036
      20         -3.116021        1.000000        0.00000077        0.00000238        0.00000094
      21         -3.115852        1.000000        0.00000029        0.00000122        0.00000022
      22         -3.115668        1.000000        0.00000018        0.00000080        0.00000033
      23         -3.115368        1.000000        0.00000015        0.00000055        0.00000015
      24         -3.115339        1.000000        0.00000003        0.00000007        0.00000005
      25         -3.115041        1.000000        0.00000004        0.00000025        0.00000007
      26         -3.114366        1.000000        0.00000213        0.00000955        0.00000181
      27         -3.113951        1.000000        0.00000000        0.00000000        0.00000000
      28         -3.113764        1.000000        0.00000024        0.00000133        0.00000056
      29         -3.112534        1.000000        0.00000001        0.00000000        0.00000000
      30         -3.111679        1.000000        0.00000024        0.00000078        0.00000036
      31         -1.784233        1.000000        0.00000003        0.00000007        0.00000001
      32         -1.782870        1.000000        0.00000000        0.00000005        0.00000001
      33         -1.782324        1.000000        0.00000001        0.00000002        0.00000000
      34         -1.782130        1.000000        0.00000000        0.00000001        0.00000000
      35         -1.781736        1.000000        0.00000001        0.00000004        0.00000000
      36         -1.781230        1.000000        0.00000002        0.00000007        0.00000001
      37         -1.780847        1.000000        0.00000002        0.00000009        0.00000002
      38         -1.780487        1.000000        0.00000003        0.00000016        0.00000001
      39         -1.780184        1.000000        0.00000001        0.00000009        0.00000002
      40         -1.779550        1.000000        0.00000001        0.00000017        0.00000005
      41         -1.779259        1.000000        0.00000009        0.00000028        0.00000005
      42         -1.778921        1.000000        0.00000004        0.00000019        0.00000002
      43         -1.778390        1.000000        0.00000023        0.00000088        0.00000013
      44         -1.778140        1.000000        0.00000015        0.00000064        0.00000006
      45         -1.777912        1.000000        0.00000000        0.00000006        0.00000003
      46         -1.777514        1.000000        0.00000001        0.00000024        0.00000008
      47         -1.777362        1.000000        0.00000001        0.00000012        0.00000004
      48         -1.776787        1.000000        0.00000010        0.00000050        0.00000007
      49         -1.776537        1.000000        0.00000005        0.00000019        0.00000001
      50         -1.776457        1.000000        0.00000005        0.00000021        0.00000004
      51         -1.776029        1.000000        0.00000000        0.00000004        0.00000003
      52         -1.774038        1.000000        0.00000000        0.00000001        0.00000001
      53         -1.773797        1.000000        0.00000000        0.00000001        0.00000000
      54         -1.773665        1.000000        0.00000001        0.00000006        0.00000002
      55         -1.772725        1.000000        0.00000000        0.00000000        0.00000000
      56         -1.772546        1.000000        0.00000000        0.00000000        0.00000000
      57         -1.772041        1.000000        0.00000000        0.00000001        0.00000000
      58         -1.771662        1.000000        0.00000001        0.00000007        0.00000000
      59         -1.771364        1.000000        0.00000000        0.00000002        0.00000000
      60         -1.770813        1.000000        0.00000005        0.00000022        0.00000001
      61         -1.770640        1.000000        0.00000001        0.00000002        0.00000001
      62         -1.770449        1.000000        0.00000001        0.00000010        0.00000001
      63         -1.770188        1.000000        0.00000010        0.00000038        0.00000004
      64         -1.770126        1.000000        0.00000002        0.00000009        0.00000002
      65         -1.769991        1.000000        0.00000001        0.00000005        0.00000001
      66         -1.769845        1.000000        0.00000000        0.00000003        0.00000001
      67         -1.769763        1.000000        0.00000002        0.00000008        0.00000001
      68         -1.769661        1.000000        0.00000000        0.00000001        0.00000000
      69         -1.769465        1.000000        0.00000004        0.00000016        0.00000002
      70         -1.769351        1.000000        0.00000003        0.00000018        0.00000002
      71         -1.769328        1.000000        0.00000004        0.00000009        0.00000002
      72         -1.769216        1.000000        0.00000000        0.00000002        0.00000001
      73         -1.769129        1.000000        0.00000000        0.00000002        0.00000001
      74         -1.769070        1.000000        0.00000000        0.00000003        0.00000001
      75         -1.768941        1.000000        0.00000001        0.00000006        0.00000002
      76         -1.768822        1.000000        0.00000003        0.00000013        0.00000001
      77         -1.768707        1.000000        0.00000001        0.00000004        0.00000001
      78         -1.768585        1.000000        0.00000000        0.00000004        0.00000002
      79         -1.768439        1.000000        0.00000009        0.00000035        0.00000003
      80         -1.768329        1.000000        0.00000001        0.00000004        0.00000001
      81         -1.768089        1.000000        0.00000002        0.00000007        0.00000002
      82         -1.767883        1.000000        0.00000000        0.00000002        0.00000000
      83         -1.767662        1.000000        0.00000001        0.00000004        0.00000001
      84         -1.767495        1.000000        0.00000000        0.00000006        0.00000001
      85         -1.767311        1.000000        0.00000002        0.00000026        0.00000008
      86         -1.767266        1.000000        0.00000005        0.00000018        0.00000001
      87         -1.767060        1.000000        0.00000001        0.00000011        0.00000004
      88         -1.767025        1.000000        0.00000000        0.00000010        0.00000009
      89         -1.766872        1.000000        0.00000000        0.00000011        0.00000004
      90         -1.766524        1.000000        0.00000004        0.00000026        0.00000006
      91         -1.766405        1.000000        0.00000000        0.00000001        0.00000000
      92         -1.766254        1.000000        0.00000002        0.00000012        0.00000003
      93         -1.766123        1.000000        0.00000001        0.00000014        0.00000002
      94         -1.765857        1.000000        0.00000013        0.00000047        0.00000006
      95         -1.765515        1.000000        0.00000000        0.00000001        0.00000001
      96         -1.765181        1.000000        0.00000010        0.00000071        0.00000024
      97         -1.765105        1.000000        0.00000001        0.00000004        0.00000002
      98         -1.764967        1.000000        0.00000001        0.00000004        0.00000001
      99         -1.764710        1.000000        0.00000005        0.00000041        0.00000019
     100         -1.764440        1.000000        0.00000001        0.00000027        0.00000014
     101         -1.764248        1.000000        0.00000001        0.00000013        0.00000004
     102         -1.763945        1.000000        0.00000089        0.00000422        0.00000084
     103         -1.763804        1.000000        0.00000136        0.00000588        0.00000098
     104         -1.763351        1.000000        0.00000008        0.00000037        0.00000005
     105         -1.763205        1.000000        0.00000011        0.00000052        0.00000008
     106         -1.763107        1.000000        0.00000000        0.00000001        0.00000002
     107         -1.762531        1.000000        0.00000000        0.00000002        0.00000001
     108         -1.762343        1.000000        0.00000008        0.00000030        0.00000002
     109         -1.761453        1.000000        0.00000000        0.00000004        0.00000001
     110         -1.760969        1.000000        0.00000003        0.00000012        0.00000002
     111         -1.760481        1.000000        0.00000001        0.00000004        0.00000003
     112         -1.760009        1.000000        0.00000000        0.00000001        0.00000001
     113         -1.759531        1.000000        0.00000000        0.00000000        0.00000000
     114         -1.759105        1.000000        0.00000003        0.00000008        0.00000001
     115         -1.758777        1.000000        0.00000000        0.00000000        0.00000000
     116         -1.757462        1.000000        0.00000000        0.00000000        0.00000000
     117         -1.756221        1.000000        0.00000000        0.00000002        0.00000001
     118         -1.755333        1.000000        0.00000000        0.00000000        0.00000000
     119         -1.754385        1.000000        0.00000000        0.00000001        0.00000000
     120         -1.752742        1.000000        0.00000000        0.00000001        0.00000000
     121         -1.131181        1.000000        0.00001247        0.00000139        0.00000071
     122         -1.128658        1.000000        0.00000942        0.00000343        0.00000106
     123         -1.128000        1.000000        0.00001952        0.00000343        0.00000126
     124         -1.126427        1.000000        0.00000463        0.00000075        0.00000032
     125         -1.120469        1.000000        0.00014868        0.00001078        0.00000508
     126         -1.119202        1.000000        0.00024333        0.00002171        0.00000879
     127         -1.117081        1.000000        0.00030332        0.00001506        0.00000749
     128         -1.116156        1.000000        0.00176750        0.00011104        0.00004593
     129         -1.115054        1.000000        0.00000182        0.00001680        0.00000698
     130         -1.111818        1.000000        0.00046122        0.00003514        0.00001031
     131         -1.111610        1.000000        0.00016973        0.00000631        0.00000240
     132         -1.110976        1.000000        0.00007330        0.00000283        0.00000118
     133         -1.109888        1.000000        0.00000313        0.00000020        0.00000014
     134         -1.108601        1.000000        0.00007650        0.00000815        0.00000178
     135         -1.108036        1.000000        0.00004999        0.00000846        0.00000281
     136         -1.107349        1.000000        0.00006212        0.00000837        0.00000364
     137         -1.106797        1.000000        0.00009001        0.00000259        0.00000052
     138         -1.106077        1.000000        0.00000263        0.00001481        0.00000527
     139         -1.104162        1.000000        0.00037192        0.00001458        0.00000372
     140         -1.102892        1.000000        0.00053269        0.00001432        0.00000294
     141         -1.102196        1.000000        0.00041437        0.00000938        0.00000235
     142         -1.101581        1.000000        0.00006342        0.00000663        0.00000199
     143         -1.101215        1.000000        0.00002895        0.00000904        0.00000296
     144         -1.099602        1.000000        0.00098114        0.00002191        0.00000395
     145         -1.098107        1.000000        0.00430983        0.00009370        0.00001519
     146         -1.097450        1.000000        0.00401573        0.00008833        0.00001459
     147         -1.097046        1.000000        0.00084038        0.00002148        0.00000270
     148         -1.095795        1.000000        0.00008713        0.00000245        0.00000034
     149         -1.095192        1.000000        0.00424852        0.00009759        0.00001100
     150         -1.093515        1.000000        0.00068294        0.00001449        0.00000224
     151         -1.093123        1.000000        0.02496619        0.00059448        0.00006710
     152         -1.092614        1.000000        0.00006209        0.00002056        0.00000784
     153         -1.091821        1.000000        0.00040733        0.00001905        0.00000346
     154         -1.090761        1.000000        0.00097418        0.00003886        0.00000652
     155         -1.090597        1.000000        0.17120355        0.00412705        0.00038623
     156         -1.089544        1.000000        0.09022039        0.00218304        0.00019505
     157         -1.088154        1.000000        0.07559916        0.00202535        0.00019735
     158         -1.086960        1.000000        0.00642986        0.00018036        0.00001696
     159         -1.086718        1.000000        0.00443986        0.00013216        0.00001313
     160         -1.085525        1.000000        0.00246386        0.00008954        0.00001038
     161         -1.084219        1.000000        0.00000433        0.00000218        0.00000116
     162         -1.082734        1.000000        0.00019577        0.00000661        0.00000076
     163         -1.082381        1.000000        0.00020511        0.00003867        0.00001133
     164         -1.080807        1.000000        0.00004125        0.00000386        0.00000250
     165         -1.080293        1.000000        0.00158140        0.00007118        0.00000893
     166         -1.079453        1.000000        0.00225232        0.00004846        0.00000700
     167         -1.078246        1.000000        0.00043080        0.00001937        0.00000205
     168         -1.077774        1.000000        0.00007676        0.00000456        0.00000033
     169         -1.077143        1.000000        0.00059528        0.00007463        0.00002072
     170         -1.076426        1.000000        0.00046858        0.00002417        0.00000415
     171         -1.076145        1.000000        0.00150650        0.00005631        0.00000407
     172         -1.074526        1.000000        0.00023380        0.00001595        0.00000324
     173         -1.074368        1.000000        0.00019949        0.00002128        0.00000458
     174         -1.073652        1.000000        0.00014559        0.00000538        0.00000447
     175         -1.072808        1.000000        0.00002390        0.00000208        0.00000177
     176         -1.072152        1.000000        0.00010174        0.00001745        0.00000437
     177         -1.071192        1.000000        0.00000656        0.00000058        0.00000022
     178         -1.070444        1.000000        0.00098912        0.00005602        0.00000620
     179         -1.070141        1.000000        0.00200650        0.00008979        0.00000508
     180         -1.069416        1.000000        0.00050285        0.00005392        0.00001407
     181         -1.069179        1.000000        0.00065571        0.00004269        0.00000516
     182         -1.067610        1.000000        0.00234944        0.00021743        0.00004814
     183         -1.066240        1.000000        0.00039184        0.00003977        0.00000403
     184         -1.065124        1.000000        0.00090844        0.00010931        0.00002263
     185         -1.064565        1.000000        0.00118611        0.00016118        0.00002883
     186         -1.063575        1.000000        0.00021374        0.00002011        0.00000533
     187         -1.062901        1.000000        0.00008449        0.00000667        0.00000054
     188         -1.062274        1.000000        0.00064242        0.00006991        0.00001225
     189         -1.061481        1.000000        0.00063422        0.00005480        0.00001205
     190         -1.061312        1.000000        0.00070612        0.00009938        0.00002119
     191         -1.060592        1.000000        0.00000085        0.00000976        0.00000264
     192         -1.059297        1.000000        0.00002321        0.00000150        0.00000054
     193         -1.058643        1.000000        0.00020879        0.00001862        0.00000344
     194         -1.058262        1.000000        0.00519817        0.00082083        0.00016781
     195         -1.057127        1.000000        0.00075006        0.00007652        0.00001841
     196         -1.056224        1.000000        0.00248501        0.00035917        0.00008360
     197         -1.056050        1.000000        0.00052917        0.00006925        0.00001401
     198         -1.054881        1.000000        0.00010388        0.00001193        0.00000307
     199         -1.054669        1.000000        0.00002744        0.00000223        0.00000057
     200         -1.053605        1.000000        0.00001236        0.00000555        0.00000069
     201         -1.053457        1.000000        0.00022122        0.00003876        0.00000920
     202         -1.052589        1.000000        0.00017014        0.00003603        0.00000791
     203         -1.052089        1.000000        0.00160016        0.00026625        0.00005633
     204         -1.051299        1.000000        0.00073636        0.00019851        0.00004779
     205         -1.050676        1.000000        0.00152670        0.00028683        0.00006764
     206         -1.050307        1.000000        0.00045483        0.00004719        0.00000966
     207         -1.049921        1.000000        0.00162406        0.00040889        0.00009863
     208         -1.049485        1.000000        0.00021130        0.00004698        0.00001111
     209         -1.049126        1.000000        0.00004121        0.00002603        0.00000682
     210         -1.048445        1.000000        0.00007601        0.00002075        0.00000675
     211         -1.048201        1.000000        0.00000393        0.00000747        0.00000189
     212         -1.047911        1.000000        0.00000865        0.00001462        0.00000741
     213         -1.047620        1.000000        0.00014001        0.00001028        0.00000240
     214         -1.046931        1.000000        0.00035733        0.00002860        0.00000725
     215         -1.046733        1.000000        0.00020210        0.00000679        0.00000196
     216         -1.046634        1.000000        0.00000297        0.00001937        0.00000652
     217         -1.045930        1.000000        0.00003018        0.00000134        0.00000025
     218         -1.045069        1.000000        0.00012543        0.00000565        0.00000122
     219         -1.044350        1.000000        0.00000040        0.00000059        0.00000025
     220         -1.043623        1.000000        0.00025540        0.00001599        0.00000843
     221         -1.043421        1.000000        0.00005524        0.00000640        0.00000112
     222         -1.042778        1.000000        0.00000364        0.00000063        0.00000022
     223         -1.042701        1.000000        0.00001648        0.00001295        0.00000252
     224         -1.042424        1.000000        0.00004722        0.00003085        0.00000557
     225         -1.041682        1.000000        0.00004246        0.00001235        0.00000560
     226         -1.041498        1.000000        0.00042400        0.00009476        0.00001688
     227         -1.040837        1.000000        0.00012507        0.00001337        0.00000562
     228         -1.040496        1.000000        0.00010450        0.00001967        0.00000350
     229         -1.040151        1.000000        0.00003751        0.00001325        0.00000393
     230         -1.039686        1.000000        0.00001822        0.00000086        0.00000014
     231         -1.038961        1.000000        0.00000127        0.00000261        0.00000077
     232         -1.038553        1.000000        0.00002169        0.00001498        0.00000329
     233         -1.038476        1.000000        0.00000044        0.00000528        0.00000152
     234         -1.038152        1.000000        0.00001812        0.00000292        0.00000071
     235         -1.038041        1.000000        0.00000004        0.00000064        0.00000021
     236         -1.036855        1.000000        0.00000393        0.00000178        0.00000024
     237         -1.036488        1.000000        0.00000799        0.00000641        0.00000135
     238         -1.036186        1.000000        0.00000031        0.00000021        0.00000006
     239         -1.036068        1.000000        0.00003398        0.00001055        0.00000225
     240         -1.035757        1.000000        0.00006705        0.00000542        0.00000185
     241         -1.035291        1.000000        0.00005253        0.00000287        0.00000116
     242         -1.035048        1.000000        0.00001309        0.00000661        0.00000178
     243         -1.035000        1.000000        0.00010831        0.00004648        0.00001015
     244         -1.034454        1.000000        0.00000084        0.00000011        0.00000004
     245         -1.034219        1.000000        0.00010496        0.00003228        0.00000736
     246         -1.033874        1.000000        0.00001669        0.00000499        0.00000122
     247         -1.033507        1.000000        0.00001516        0.00000207        0.00000043
     248         -1.033219        1.000000        0.00000050        0.00000297        0.00000072
     249         -1.033056        1.000000        0.00001408        0.00000202        0.00000048
     250         -1.032307        1.000000        0.00027764        0.00007029        0.00001670
     251         -1.031324        1.000000        0.00001228        0.00001717        0.00000529
     252         -1.031144        1.000000        0.00049535        0.00019367        0.00004460
     253         -1.030643        1.000000        0.00174129        0.00059234        0.00013527
     254         -1.030284        1.000000        0.00017903        0.00003784        0.00000939
     255         -1.030062        1.000000        0.00020061        0.00008470        0.00001884
     256         -1.029818        1.000000        0.00015670        0.00002698        0.00000731
     257         -1.028552        1.000000        0.00020345        0.00008639        0.00001941
     258         -1.027578        1.000000        0.00004531        0.00002807        0.00000685
     259         -1.027121        1.000000        0.00014607        0.00006935        0.00001604
     260         -1.026880        1.000000        0.00123745        0.00066717        0.00015139
     261         -1.026226        1.000000        0.00060038        0.00029805        0.00006932
     262         -1.025765        1.000000        0.00015702        0.00011389        0.00002633
     263         -1.025299        1.000000        0.00001016        0.00001010        0.00000246
     264         -1.025158        1.000000        0.00002526        0.00007840        0.00002356
     265         -1.025007        1.000000        0.00090879        0.00067092        0.00015591
     266         -1.024422        1.000000        0.00044960        0.00033716        0.00008592
     267         -1.023793        1.000000        0.00012184        0.00008020        0.00001838
     268         -1.023594        1.000000        0.00317210        0.00047512        0.00009829
     269         -1.023069        1.000000        0.00392410        0.00170869        0.00036879
     270         -1.022603        1.000000        0.00168916        0.00076179        0.00016440
     271         -1.022074        1.000000        0.00084002        0.00028790        0.00005847
     272         -1.021695        1.000000        0.00031450        0.00016462        0.00003598
     273         -1.021372        1.000000        0.00000002        0.00000020        0.00000007
     274         -1.021076        1.000000        0.00033025        0.00010267        0.00002108
     275         -1.019492        1.000000        0.00000927        0.00000652        0.00000144
     276         -1.018003        1.000000        0.00003544        0.00001209        0.00000220
     277         -1.016408        1.000000        0.00000075        0.00000079        0.00000030
     278         -1.016278        1.000000        0.00005604        0.00003281        0.00000763
     279         -1.015338        1.000000        0.00000000        0.00000000        0.00000000
     280         -1.013851        1.000000        0.00000206        0.00000092        0.00000018
     281         -1.010223        1.000000        0.00002107        0.00001185        0.00000275
     282         -1.009666        1.000000        0.00000000        0.00000000        0.00000000
     283         -1.007726        1.000000        0.00020740        0.00012009        0.00003110
     284         -1.007300        1.000000        0.00002492        0.00001468        0.00000370
     285         -1.006916        1.000000        0.00000009        0.00000006        0.00000002
     286         -0.889442        1.000000        0.00000962        0.00000915        0.00000367
     287         -0.869424        1.000000        0.00002646        0.00002783        0.00000887
     288         -0.867225        1.000000        0.00000204        0.00000533        0.00000182
     289         -0.864755        1.000000        0.00001203        0.00001232        0.00000349
     290         -0.860947        1.000000        0.00000049        0.00000408        0.00000074
     291         -0.846899        1.000000        0.00002352        0.00002969        0.00000687
     292         -0.844423        1.000000        0.00000309        0.00000272        0.00000079
     293         -0.843782        1.000000        0.00000003        0.00000535        0.00000157
     294         -0.840445        1.000000        0.00000020        0.00000951        0.00000252
     295         -0.821748        1.000000        0.00001446        0.00003132        0.00000556
     296         -0.818927        1.000000        0.00000068        0.00000030        0.00000034
     297         -0.814033        1.000000        0.00000840        0.00001277        0.00000332
     298         -0.808071        1.000000        0.00002342        0.00005170        0.00000683
     299         -0.807076        1.000000        0.00000266        0.00000367        0.00000097
     300         -0.806003        1.000000        0.00000778        0.00000777        0.00000157
     301         -0.805433        1.000000        0.00000931        0.00001764        0.00000419
     302         -0.803208        1.000000        0.00000338        0.00000853        0.00000448
     303         -0.802271        1.000000        0.00000400        0.00000879        0.00000143
     304         -0.801014        1.000000        0.00000032        0.00000323        0.00000074
     305         -0.800419        1.000000        0.00000010        0.00000109        0.00000044
     306         -0.800163        1.000000        0.00000221        0.00001666        0.00000725
     307         -0.798966        1.000000        0.00001305        0.00002510        0.00000600