# Projected DOS for list 93 of 1 atoms, at iteration step i = 0, E(Fermi) =    -0.245567 a.u.
#     MO Eigenvalue [a.u.]      Occupation                 s                 p                 d
       1         -3.122063        1.000000        0.00000000        0.00000000        0.00000000
       2         -3.121278        1.000000        0.00000000        0.00000000        0.00000000
       3         -3.121021        1.000000        0.00000000        0.00000000        0.00000000
       4         -3.120578        1.000000        0.00000000        0.00000000        0.00000000
       5         -3.120271        1.000000        0.00000000        0.00000000        0.00000000
       6         -3.119857        1.000000        0.00000000        0.00000000        0.00000000
       7         -3.119652        1.000000        0.00000000        0.00000000        0.00000000
       8         -3.119624        1.000000        0.00000000        0.00000000        0.00000000
       9         -3.119219        1.000000        0.00000000        0.00000000        0.00000000
      10         -3.119023        1.000000        0.00000000        0.00000000        0.00000000
      11         -3.118913        1.000000        0.00000000        0.00000000        0.00000000
      12         -3.118874        1.000000        0.00000000        0.00000000        0.00000000
      13         -3.118317        1.000000        0.00000000        0.00000000        0.00000000
      14         -3.118249        1.000000        0.00000000        0.00000000        0.00000000
      15         -3.117895        1.000000        0.00000000        0.00000000        0.00000000
      16         -3.117383        1.000000        0.00000000        0.00000000        0.00000000
      17         -3.117165        1.000000        0.00000000        0.00000000        0.00000000
      18         -3.116815        1.000000        0.00000000        0.00000000        0.00000000
      19         -3.116436        1.000000        0.00000000        0.00000000        0.00000000
      20         -3.116021        1.000000        0.00000000        0.00000000        0.00000000
      21         -3.115852        1.000000        0.00000000        0.00000000        0.00000000
      22         -3.115668        1.000000        0.00000000        0.00000000        0.00000000
      23         -3.115368        1.000000        0.00000000        0.00000000        0.00000000
      24         -3.115339        1.000000        0.00000000        0.00000000        0.00000000
      25         -3.115041        1.000000        0.00000000        0.00000000        0.00000000
      26         -3.114366        1.000000        0.00000000        0.00000000        0.00000000
      27         -3.113951        1.000000        0.00000000        0.00000000        0.00000000
      28         -3.113764        1.000000        0.00000000        0.00000000        0.00000000
      29         -3.112534        1.000000        0.00000000        0.00000000        0.00000000
      30         -3.111679        1.000000        0.00000000        0.00000000        0.00000000
      31         -1.784233        1.000000        0.00000000        0.00000000        0.00000000
      32         -1.782870        1.000000        0.00000000        0.00000000        0.00000000
      33         -1.782324        1.000000        0.00000000        0.00000000        0.00000000
      34         -1.782130        1.000000        0.00000000        0.00000000        0.00000000
      35         -1.781736        1.000000        0.00000000        0.00000000        0.00000000
      36         -1.781230        1.000000        0.00000000        0.00000000        0.00000000
      37         -1.780847        1.000000        0.00000000        0.00000000        0.00000000
      38         -1.780487        1.000000        0.00000000        0.00000000        0.00000000
      39         -1.780184        1.000000        0.00000000        0.00000000        0.00000000
      40         -1.779550        1.000000        0.00000000        0.00000000        0.00000000
      41         -1.779259        1.000000        0.00000000        0.00000000        0.00000000
      42         -1.778921        1.000000        0.00000000        0.00000000        0.00000000
      43         -1.778390        1.000000        0.00000000        0.00000000        0.00000000
      44         -1.778140        1.000000        0.00000000        0.00000000        0.00000000
      45         -1.777912        1.000000        0.00000000        0.00000000        0.00000000
      46         -1.777514        1.000000        0.00000000        0.00000000        0.00000000
      47         -1.777362        1.000000        0.00000000        0.00000000        0.00000000
      48         -1.776787        1.000000        0.00000000        0.00000000        0.00000000
      49         -1.776537        1.000000        0.00000000        0.00000000        0.00000000
      50         -1.776457        1.000000        0.00000000        0.00000000        0.00000000
      51         -1.776029        1.000000        0.00000000        0.00000000        0.00000000
      52         -1.774038        1.000000        0.00000000        0.00000000        0.00000000
      53         -1.773797        1.000000        0.00000000        0.00000000        0.00000000
      54         -1.773665        1.000000        0.00000000        0.00000000        0.00000000
      55         -1.772725        1.000000        0.00000000        0.00000000        0.00000000
      56         -1.772546        1.000000        0.00000000        0.00000000        0.00000000
      57         -1.772041        1.000000        0.00000000        0.00000000        0.00000000
      58         -1.771662        1.000000        0.00000000        0.00000000        0.00000000
      59         -1.771364        1.000000        0.00000000        0.00000000        0.00000000
      60         -1.770813        1.000000        0.00000000        0.00000000        0.00000000
      61         -1.770640        1.000000        0.00000000        0.00000000        0.00000000
      62         -1.770449        1.000000        0.00000000        0.00000000        0.00000000
      63         -1.770188        1.000000        0.00000000        0.00000000        0.00000000
      64         -1.770126        1.000000        0.00000000        0.00000000        0.00000000
      65         -1.769991        1.000000        0.00000000        0.00000000        0.00000000
      66         -1.769845        1.000000        0.00000000        0.00000000        0.00000000
      67         -1.769763        1.000000        0.00000000        0.00000000        0.00000000
      68         -1.769661        1.000000        0.00000000        0.00000000        0.00000000
      69         -1.769465        1.000000        0.00000000        0.00000000        0.00000000
      70         -1.769351        1.000000        0.00000000        0.00000000        0.00000000
      71         -1.769328        1.000000        0.00000000        0.00000000        0.00000000
      72         -1.769216        1.000000        0.00000000        0.00000000        0.00000000
      73         -1.769129        1.000000        0.00000000        0.00000000        0.00000000
      74         -1.769070        1.000000        0.00000000        0.00000000        0.00000000
      75         -1.768941        1.000000        0.00000000        0.00000000        0.00000000
      76         -1.768822        1.000000        0.00000000        0.00000000        0.00000000
      77         -1.768707        1.000000        0.00000000        0.00000000        0.00000000
      78         -1.768585        1.000000        0.00000000        0.00000000        0.00000000
      79         -1.768439        1.000000        0.00000000        0.00000000        0.00000000
      80         -1.768329        1.000000        0.00000000        0.00000000        0.00000000
      81         -1.768089        1.000000        0.00000000        0.00000000        0.00000000
      82         -1.767883        1.000000        0.00000000        0.00000000        0.00000000
      83         -1.767662        1.000000        0.00000000        0.00000000        0.00000000
      84         -1.767495        1.000000        0.00000000        0.00000000        0.00000000
      85         -1.767311        1.000000        0.00000000        0.00000000        0.00000000
      86         -1.767266        1.000000        0.00000000        0.00000000        0.00000000
      87         -1.767060        1.000000        0.00000000        0.00000000        0.00000000
      88         -1.767025        1.000000        0.00000000        0.00000000        0.00000000
      89         -1.766872        1.000000        0.00000000        0.00000000        0.00000000
      90         -1.766524        1.000000        0.00000000        0.00000000        0.00000000
      91         -1.766405        1.000000        0.00000000        0.00000000        0.00000000
      92         -1.766254        1.000000        0.00000000        0.00000000        0.00000000
      93         -1.766123        1.000000        0.00000000        0.00000000        0.00000000
      94         -1.765857        1.000000        0.00000000        0.00000000        0.00000000
      95         -1.765515        1.000000        0.00000000        0.00000000        0.00000000
      96         -1.765181        1.000000        0.00000000        0.00000000        0.00000000
      97         -1.765105        1.000000        0.00000000        0.00000000        0.00000000
      98         -1.764967        1.000000        0.00000000        0.00000000        0.00000000
      99         -1.764710        1.000000        0.00000000        0.00000000        0.00000000
     100         -1.764440        1.000000        0.00000000        0.00000000        0.00000000
     101         -1.764248        1.000000        0.00000000        0.00000000        0.00000000
     102         -1.763945        1.000000        0.00000000        0.00000000        0.00000000
     103         -1.763804        1.000000        0.00000000        0.00000000        0.00000000
     104         -1.763351        1.000000        0.00000000        0.00000000        0.00000000
     105         -1.763205        1.000000        0.00000000        0.00000000        0.00000000
     106         -1.763107        1.000000        0.00000000        0.00000000        0.00000000
     107         -1.762531        1.000000        0.00000000        0.00000000        0.00000000
     108         -1.762343        1.000000        0.00000000        0.00000000        0.00000000
     109         -1.761453        1.000000        0.00000000        0.00000000        0.00000000
     110         -1.760969        1.000000        0.00000000        0.00000000        0.00000000
     111         -1.760481        1.000000        0.00000000        0.00000000        0.00000000
     112         -1.760009        1.000000        0.00000000        0.00000000        0.00000000
     113         -1.759531        1.000000        0.00000000        0.00000000        0.00000000
     114         -1.759105        1.000000        0.00000000        0.00000000        0.00000000
     115         -1.758777        1.000000        0.00000000        0.00000000        0.00000000
     116         -1.757462        1.000000        0.00000000        0.00000000        0.00000000
     117         -1.756221        1.000000        0.00000000        0.00000000        0.00000000
     118         -1.755333        1.000000        0.00000000        0.00000000        0.00000000
     119         -1.754385        1.000000        0.00000000        0.00000000        0.00000000
     120         -1.752742        1.000000        0.00000000        0.00000000        0.00000000
     121         -1.131181        1.000000        0.00654228        0.00010672        0.00009151
     122         -1.128658        1.000000        0.00042468        0.00000959        0.00000582
     123         -1.128000        1.000000        0.02273210        0.00031976        0.00028243
     124         -1.126427        1.000000        0.19365165        0.00250991        0.00230134
     125         -1.120469        1.000000        0.00797768        0.00048003        0.00006959
     126         -1.119202        1.000000        0.00122833        0.00009315        0.00001060
     127         -1.117081        1.000000        0.00000629        0.00000144        0.00000143
     128         -1.116156        1.000000        0.00081213        0.00007406        0.00000801
     129         -1.115054        1.000000        0.00017289        0.00002811        0.00000239
     130         -1.111818        1.000000        0.00019899        0.00001854        0.00000216
     131         -1.111610        1.000000        0.00302961        0.00006786        0.00002010
     132         -1.110976        1.000000        0.00123578        0.00082554        0.00003376
     133         -1.109888        1.000000        0.00167472        0.00001248        0.00003412
     134         -1.108601        1.000000        0.00180683        0.00215439        0.00007119
     135         -1.108036        1.000000        0.00801829        0.00014754        0.00008249
     136         -1.107349        1.000000        0.00509511        0.00020446        0.00004021
     137         -1.106797        1.000000        0.00283207        0.00154466        0.00006116
     138         -1.106077        1.000000        0.00672642        0.00013667        0.00004950
     139         -1.104162        1.000000        0.00001286        0.00021674        0.00001424
     140         -1.102892        1.000000        0.00142001        0.00004455        0.00000656
     141         -1.102196        1.000000        0.00279778        0.00078770        0.00001718
     142         -1.101581        1.000000        0.00524986        0.00344021        0.00003587
     143         -1.101215        1.000000        0.00138188        0.00007121        0.00001391
     144         -1.099602        1.000000        0.00138353        0.00020291        0.00002114
     145         -1.098107        1.000000        0.01133874        0.00063179        0.00003669
     146         -1.097450        1.000000        0.00000655        0.00075045        0.00002106
     147         -1.097046        1.000000        0.00001005        0.00030319        0.00002179
     148         -1.095795        1.000000        0.00019961        0.00016195        0.00000281
     149         -1.095192        1.000000        0.00140329        0.00011791        0.00003346
     150         -1.093515        1.000000        0.00021947        0.00079529        0.00003274
     151         -1.093123        1.000000        0.00008598        0.00012511        0.00000489
     152         -1.092614        1.000000        0.00002920        0.00043900        0.00004812
     153         -1.091821        1.000000        0.00144364        0.00015961        0.00001336
     154         -1.090761        1.000000        0.00000241        0.00002408        0.00001459
     155         -1.090597        1.000000        0.00029033        0.00023919        0.00001009
     156         -1.089544        1.000000        0.00025760        0.00013569        0.00003077
     157         -1.088154        1.000000        0.00057757        0.00017988        0.00001587
     158         -1.086960        1.000000        0.00097005        0.00026580        0.00004542
     159         -1.086718        1.000000        0.00101746        0.00019049        0.00004030
     160         -1.085525        1.000000        0.00008936        0.00009430        0.00000785
     161         -1.084219        1.000000        0.00241768        0.00039946        0.00015858
     162         -1.082734        1.000000        0.01242607        0.00015145        0.00004511
     163         -1.082381        1.000000        0.00060766        0.00002660        0.00000252
     164         -1.080807        1.000000        0.00019919        0.00041425        0.00009337
     165         -1.080293        1.000000        0.00031182        0.00002434        0.00001999
     166         -1.079453        1.000000        0.00442053        0.00207721        0.00006611
     167         -1.078246        1.000000        0.02746746        0.00163537        0.00010391
     168         -1.077774        1.000000        0.00352456        0.00012969        0.00007875
     169         -1.077143        1.000000        0.01894641        0.00108636        0.00007870
     170         -1.076426        1.000000        0.00034191        0.00017907        0.00001966
     171         -1.076145        1.000000        0.00296480        0.00010299        0.00002086
     172         -1.074526        1.000000        0.00131857        0.00000800        0.00005402
     173         -1.074368        1.000000        0.00102175        0.00011476        0.00008807
     174         -1.073652        1.000000        0.00009716        0.00014185        0.00004301
     175         -1.072808        1.000000        0.00002845        0.00005230        0.00000651
     176         -1.072152        1.000000        0.00950244        0.00026146        0.00000687
     177         -1.071192        1.000000        0.00025511        0.00009518        0.00001105
     178         -1.070444        1.000000        0.00301611        0.00013999        0.00001841
     179         -1.070141        1.000000        0.00512788        0.00026390        0.00020690
     180         -1.069416        1.000000        0.00381914        0.00017251        0.00005090
     181         -1.069179        1.000000        0.00888654        0.00009404        0.00006718
     182         -1.067610        1.000000        0.01450469        0.00007986        0.00009383
     183         -1.066240        1.000000        0.00353175        0.00004413        0.00003105
     184         -1.065124        1.000000        0.00001808        0.00002129        0.00000398
     185         -1.064565        1.000000        0.00665164        0.00016094        0.00007910
     186         -1.063575        1.000000        0.00050667        0.00001988        0.00004990
     187         -1.062901        1.000000        0.00265629        0.00007040        0.00004125
     188         -1.062274        1.000000        0.01365834        0.00010875        0.00003049
     189         -1.061481        1.000000        0.00285757        0.00006322        0.00000777
     190         -1.061312        1.000000        0.01290051        0.00014879        0.00001118
     191         -1.060592        1.000000        0.00825131        0.00008309        0.00001696
     192         -1.059297        1.000000        0.00433346        0.00002759        0.00000888
     193         -1.058643        1.000000        0.02047190        0.00057920        0.00001949
     194         -1.058262        1.000000        0.00092971        0.00002553        0.00000851
     195         -1.057127        1.000000        0.00109326        0.00004780        0.00002742
     196         -1.056224        1.000000        0.00009784        0.00010380        0.00002256
     197         -1.056050        1.000000        0.00181065        0.00001751        0.00002406
     198         -1.054881        1.000000        0.00022275        0.00016514        0.00009142
     199         -1.054669        1.000000        0.00064367        0.00041002        0.00009215
     200         -1.053605        1.000000        0.00376487        0.00006891        0.00000211
     201         -1.053457        1.000000        0.01710768        0.00033555        0.00005564
     202         -1.052589        1.000000        0.00119624        0.00001584        0.00009518
     203         -1.052089        1.000000        0.00267819        0.00013542        0.00002257
     204         -1.051299        1.000000        0.00002923        0.00008403        0.00000756
     205         -1.050676        1.000000        0.00061347        0.00003678        0.00002160
     206         -1.050307        1.000000        0.00006602        0.00007299        0.00015536
     207         -1.049921        1.000000        0.00454182        0.00004820        0.00006667
     208         -1.049485        1.000000        0.00015956        0.00009982        0.00000782
     209         -1.049126        1.000000        0.00041429        0.00001722        0.00008523
     210         -1.048445        1.000000        0.00020766        0.00006567        0.00004906
     211         -1.048201        1.000000        0.00030727        0.00003981        0.00002994
     212         -1.047911        1.000000        0.00193242        0.00004543        0.00001647
     213         -1.047620        1.000000        0.00019872        0.00004430        0.00001609
     214         -1.046931        1.000000        0.00018338        0.00000909        0.00000741
     215         -1.046733        1.000000        0.00100778        0.00005154        0.00005690
     216         -1.046634        1.000000        0.00034328        0.00014925        0.00004938
     217         -1.045930        1.000000        0.00116071        0.00041223        0.00005604
     218         -1.045069        1.000000        0.00019168        0.00003808        0.00000711
     219         -1.044350        1.000000        0.00136283        0.00001328        0.00018378
     220         -1.043623        1.000000        0.00088459        0.00001346        0.00002255
     221         -1.043421        1.000000        0.00000849        0.00000385        0.00000333
     222         -1.042778        1.000000        0.00043976        0.00008401        0.00002237
     223         -1.042701        1.000000        0.00211342        0.00004328        0.00001217
     224         -1.042424        1.000000        0.00079147        0.00001180        0.00002421
     225         -1.041682        1.000000        0.00253816        0.00008160        0.00002063
     226         -1.041498        1.000000        0.00027157        0.00000552        0.00000599
     227         -1.040837        1.000000        0.00212821        0.00014211        0.00006420
     228         -1.040496        1.000000        0.00126043        0.00021065        0.00003355
     229         -1.040151        1.000000        0.00312617        0.00025036        0.00014729
     230         -1.039686        1.000000        0.00050031        0.00002015        0.00007638
     231         -1.038961        1.000000        0.00000647        0.00009438        0.00008174
     232         -1.038553        1.000000        0.00000426        0.00001257        0.00002400
     233         -1.038476        1.000000        0.00019103        0.00015185        0.00012599
     234         -1.038152        1.000000        0.00000385        0.00010388        0.00002621
     235         -1.038041        1.000000        0.00004354        0.00010924        0.00003544
     236         -1.036855        1.000000        0.00004195        0.00000268        0.00002260
     237         -1.036488        1.000000        0.00005684        0.00001857        0.00000462
     238         -1.036186        1.000000        0.00034340        0.00000512        0.00001691
     239         -1.036068        1.000000        0.00000138        0.00001033        0.00000930
     240         -1.035757        1.000000        0.00000462        0.00000038        0.00000128
     241         -1.035291        1.000000        0.00001320        0.00000112        0.00000131
     242         -1.035048        1.000000        0.00051025        0.00001138        0.00004810
     243         -1.035000        1.000000        0.00005354        0.00003975        0.00000432
     244         -1.034454        1.000000        0.00042160        0.00008744        0.00001609
     245         -1.034219        1.000000        0.00005438        0.00002612        0.00000468
     246         -1.033874        1.000000        0.00027645        0.00002205        0.00002222
     247         -1.033507        1.000000        0.00003333        0.00000176        0.00000065
     248         -1.033219        1.000000        0.00008974        0.00002053        0.00000988
     249         -1.033056        1.000000        0.00000039        0.00000210        0.00000054
     250         -1.032307        1.000000        0.00004105        0.00000434        0.00000144
     251         -1.031324        1.000000        0.00000065        0.00000030        0.00000014
     252         -1.031144        1.000000        0.00000123        0.00000063        0.00000024
     253         -1.030643        1.000000        0.00002250        0.00000533        0.00000259
     254         -1.030284        1.000000        0.00012516        0.00001132        0.00000866
     255         -1.030062        1.000000        0.00019140        0.00002471        0.00001789
     256         -1.029818        1.000000        0.00000745        0.00000419        0.00000248
     257         -1.028552        1.000000        0.00000012        0.00000210        0.00000043
     258         -1.027578        1.000000        0.00000022        0.00000008        0.00000002
     259         -1.027121        1.000000        0.00001551        0.00000135        0.00000058
     260         -1.026880        1.000000        0.00000129        0.00000047        0.00000021
     261         -1.026226        1.000000        0.00000119        0.00000089        0.00000001
     262         -1.025765        1.000000        0.00000992        0.00000220        0.00000018
     263         -1.025299        1.000000        0.00002357        0.00002497        0.00000151
     264         -1.025158        1.000000        0.00000215        0.00000106        0.00000144
     265         -1.025007        1.000000        0.00000114        0.00000143        0.00000044
     266         -1.024422        1.000000        0.00000023        0.00000020        0.00000022
     267         -1.023793        1.000000        0.00002511        0.00000376        0.00000118
     268         -1.023594        1.000000        0.00000320        0.00000233        0.00000162
     269         -1.023069        1.000000        0.00000340        0.00000143        0.00000131
     270         -1.022603        1.000000        0.00000011        0.00000424        0.00000252
     271         -1.022074        1.000000        0.00002937        0.00000872        0.00000613
     272         -1.021695        1.000000        0.00013086        0.00003737        0.00002311
     273         -1.021372        1.000000        0.00000246        0.00000341        0.00000117
     274         -1.021076        1.000000        0.00000128        0.00000053        0.00000024
     275         -1.019492        1.000000        0.00000004        0.00000006        0.00000005
     276         -1.018003        1.000000        0.00000076        0.00000029        0.00000014
     277         -1.016408        1.000000        0.00000009        0.00000005        0.00000001
     278         -1.016278        1.000000        0.00000011        0.00000007        0.00000003
     279         -1.015338        1.000000        0.00000002        0.00000000        0.00000001
     280         -1.013851        1.000000        0.00000042        0.00000023        0.00000004
     281         -1.010223        1.000000        0.00000000        0.00000001        0.00000000
     282         -1.009666        1.000000        0.00001568        0.00000957        0.00000585
     283         -1.007726        1.000000        0.00000004        0.00000004        0.00000001
     284         -1.007300        1.000000        0.00000305        0.00000135        0.00000013
     285         -1.006916        1.000000        0.00044697        0.00009334        0.00002968
     286         -0.889442        1.000000        0.00000000        0.00000000        0.00000000
     287         -0.869424        1.000000        0.00000000        0.00000000        0.00000000
     288         -0.867225        1.000000        0.00000000        0.00000000        0.00000000
     289         -0.864755        1.000000        0.00000000        0.00000000        0.00000000
     290         -0.860947        1.000000        0.00000000        0.00000000        0.00000000
     291         -0.846899        1.000000        0.00000000        0.00000000        0.00000000
     292         -0.844423        1.000000        0.00000000        0.00000000        0.00000000
     293         -0.843782        1.000000        0.00000000        0.00000000        0.00000000
     294         -0.840445        1.000000        0.00000000        0.00000000        0.00000000
     295         -0.821748        1.000000        0.00000000        0.00000000        0.00000000
     296         -0.818927        1.000000        0.00000000        0.00000000        0.00000000
     297         -0.814033        1.000000        0.00000000        0.00000000        0.00000000
     298         -0.808071        1.000000        0.00000000        0.00000000        0.00000000
     299         -0.807076        1.000000        0.00000000        0.00000000        0.00000000
     300         -0.806003        1.000000        0.00000000        0.00000000        0.00000000
     301         -0.805433        1.000000        0.00000000        0.00000000        0.00000000
     302         -0.803208        1.000000        0.00000000        0.00000000        0.00000000
     303         -0.802271        1.000000        0.00000000        0.00000000        0.00000000
     304         -0.801014        1.000000        0.00000000        0.00000000        0.00000000
     305         -0.800419        1.000000        0.00000000        0.00000000        0.00000000
     306         -0.800163        1.000000        0.00000000        0.00000000        0.00000000
     307         -0.798966        1.000000        0.00000000        0.00000000        0.00000000