# Projected DOS for atomic kind Ob at iteration step i = 0, E(Fermi) =    -0.245567 a.u.
#     MO Eigenvalue [a.u.]      Occupation                 s                 p                 d
       1         -3.122063        1.000000        0.00000000        0.00000000        0.00000000
       2         -3.121278        1.000000        0.00000000        0.00000000        0.00000000
       3         -3.121021        1.000000        0.00000000        0.00000000        0.00000000
       4         -3.120578        1.000000        0.00000000        0.00000000        0.00000000
       5         -3.120271        1.000000        0.00000000        0.00000000        0.00000000
       6         -3.119857        1.000000        0.00000000        0.00000000        0.00000000
       7         -3.119652        1.000000        0.00000000        0.00000000        0.00000000
       8         -3.119624        1.000000        0.00000000        0.00000000        0.00000000
       9         -3.119219        1.000000        0.00000000        0.00000000        0.00000000
      10         -3.119023        1.000000        0.00000000        0.00000000        0.00000000
      11         -3.118913        1.000000        0.00000000        0.00000000        0.00000000
      12         -3.118874        1.000000        0.00000000        0.00000000        0.00000000
      13         -3.118317        1.000000        0.00000000        0.00000000        0.00000000
      14         -3.118249        1.000000        0.00000000        0.00000000        0.00000000
      15         -3.117895        1.000000        0.00000000        0.00000000        0.00000000
      16         -3.117383        1.000000        0.00000000        0.00000000        0.00000000
      17         -3.117165        1.000000        0.00000000        0.00000000        0.00000000
      18         -3.116815        1.000000        0.00000000        0.00000000        0.00000000
      19         -3.116436        1.000000        0.00000000        0.00000000        0.00000000
      20         -3.116021        1.000000        0.00000000        0.00000000        0.00000000
      21         -3.115852        1.000000        0.00000000        0.00000000        0.00000000
      22         -3.115668        1.000000        0.00000000        0.00000000        0.00000000
      23         -3.115368        1.000000        0.00000000        0.00000000        0.00000000
      24         -3.115339        1.000000        0.00000000        0.00000000        0.00000000
      25         -3.115041        1.000000        0.00000000        0.00000000        0.00000000
      26         -3.114366        1.000000        0.00000000        0.00000000        0.00000000
      27         -3.113951        1.000000        0.00000000        0.00000000        0.00000000
      28         -3.113764        1.000000        0.00000000        0.00000000        0.00000000
      29         -3.112534        1.000000        0.00000000        0.00000000        0.00000000
      30         -3.111679        1.000000        0.00000000        0.00000000        0.00000000
      31         -1.784233        1.000000        0.00000000        0.00000000        0.00000000
      32         -1.782870        1.000000        0.00000000        0.00000000        0.00000000
      33         -1.782324        1.000000        0.00000000        0.00000000        0.00000000
      34         -1.782130        1.000000        0.00000000        0.00000000        0.00000000
      35         -1.781736        1.000000        0.00000000        0.00000000        0.00000000
      36         -1.781230        1.000000        0.00000000        0.00000000        0.00000000
      37         -1.780847        1.000000        0.00000000        0.00000000        0.00000000
      38         -1.780487        1.000000        0.00000000        0.00000000        0.00000000
      39         -1.780184        1.000000        0.00000000        0.00000000        0.00000000
      40         -1.779550        1.000000        0.00000000        0.00000000        0.00000000
      41         -1.779259        1.000000        0.00000000        0.00000000        0.00000000
      42         -1.778921        1.000000        0.00000000        0.00000000        0.00000000
      43         -1.778390        1.000000        0.00000000        0.00000000        0.00000000
      44         -1.778140        1.000000        0.00000000        0.00000000        0.00000000
      45         -1.777912        1.000000        0.00000000        0.00000000        0.00000000
      46         -1.777514        1.000000        0.00000000        0.00000000        0.00000000
      47         -1.777362        1.000000        0.00000000        0.00000000        0.00000000
      48         -1.776787        1.000000        0.00000000        0.00000000        0.00000000
      49         -1.776537        1.000000        0.00000000        0.00000000        0.00000000
      50         -1.776457        1.000000        0.00000000        0.00000000        0.00000000
      51         -1.776029        1.000000        0.00000000        0.00000000        0.00000000
      52         -1.774038        1.000000        0.00000000        0.00000000        0.00000000
      53         -1.773797        1.000000        0.00000000        0.00000000        0.00000000
      54         -1.773665        1.000000        0.00000000        0.00000000        0.00000000
      55         -1.772725        1.000000        0.00000000        0.00000000        0.00000000
      56         -1.772546        1.000000        0.00000000        0.00000000        0.00000000
      57         -1.772041        1.000000        0.00000000        0.00000000        0.00000000
      58         -1.771662        1.000000        0.00000000        0.00000000        0.00000000
      59         -1.771364        1.000000        0.00000000        0.00000000        0.00000000
      60         -1.770813        1.000000        0.00000000        0.00000000        0.00000000
      61         -1.770640        1.000000        0.00000000        0.00000000        0.00000000
      62         -1.770449        1.000000        0.00000000        0.00000000        0.00000000
      63         -1.770188        1.000000        0.00000000        0.00000000        0.00000000
      64         -1.770126        1.000000        0.00000000        0.00000000        0.00000000
      65         -1.769991        1.000000        0.00000000        0.00000000        0.00000000
      66         -1.769845        1.000000        0.00000000        0.00000000        0.00000000
      67         -1.769763        1.000000        0.00000000        0.00000000        0.00000000
      68         -1.769661        1.000000        0.00000000        0.00000000        0.00000000
      69         -1.769465        1.000000        0.00000000        0.00000000        0.00000000
      70         -1.769351        1.000000        0.00000000        0.00000000        0.00000000
      71         -1.769328        1.000000        0.00000000        0.00000000        0.00000000
      72         -1.769216        1.000000        0.00000000        0.00000000        0.00000000
      73         -1.769129        1.000000        0.00000000        0.00000000        0.00000000
      74         -1.769070        1.000000        0.00000000        0.00000000        0.00000000
      75         -1.768941        1.000000        0.00000000        0.00000000        0.00000000
      76         -1.768822        1.000000        0.00000000        0.00000000        0.00000000
      77         -1.768707        1.000000        0.00000000        0.00000000        0.00000000
      78         -1.768585        1.000000        0.00000000        0.00000000        0.00000000
      79         -1.768439        1.000000        0.00000000        0.00000000        0.00000000
      80         -1.768329        1.000000        0.00000000        0.00000000        0.00000000
      81         -1.768089        1.000000        0.00000000        0.00000000        0.00000000
      82         -1.767883        1.000000        0.00000000        0.00000000        0.00000000
      83         -1.767662        1.000000        0.00000000        0.00000000        0.00000000
      84         -1.767495        1.000000        0.00000000        0.00000000        0.00000000
      85         -1.767311        1.000000        0.00000000        0.00000000        0.00000000
      86         -1.767266        1.000000        0.00000000        0.00000000        0.00000000
      87         -1.767060        1.000000        0.00000000        0.00000000        0.00000000
      88         -1.767025        1.000000        0.00000000        0.00000000        0.00000000
      89         -1.766872        1.000000        0.00000000        0.00000000        0.00000000
      90         -1.766524        1.000000        0.00000000        0.00000000        0.00000000
      91         -1.766405        1.000000        0.00000000        0.00000000        0.00000000
      92         -1.766254        1.000000        0.00000000        0.00000000        0.00000000
      93         -1.766123        1.000000        0.00000000        0.00000000        0.00000000
      94         -1.765857        1.000000        0.00000000        0.00000000        0.00000000
      95         -1.765515        1.000000        0.00000000        0.00000000        0.00000000
      96         -1.765181        1.000000        0.00000000        0.00000000        0.00000000
      97         -1.765105        1.000000        0.00000000        0.00000000        0.00000000
      98         -1.764967        1.000000        0.00000000        0.00000000        0.00000000
      99         -1.764710        1.000000        0.00000000        0.00000000        0.00000000
     100         -1.764440        1.000000        0.00000000        0.00000000        0.00000000
     101         -1.764248        1.000000        0.00000000        0.00000000        0.00000000
     102         -1.763945        1.000000        0.00000000        0.00000000        0.00000000
     103         -1.763804        1.000000        0.00000000        0.00000000        0.00000000
     104         -1.763351        1.000000        0.00000000        0.00000000        0.00000000
     105         -1.763205        1.000000        0.00000000        0.00000000        0.00000000
     106         -1.763107        1.000000        0.00000000        0.00000000        0.00000000
     107         -1.762531        1.000000        0.00000000        0.00000000        0.00000000
     108         -1.762343        1.000000        0.00000000        0.00000000        0.00000000
     109         -1.761453        1.000000        0.00000000        0.00000000        0.00000000
     110         -1.760969        1.000000        0.00000000        0.00000000        0.00000000
     111         -1.760481        1.000000        0.00000000        0.00000000        0.00000000
     112         -1.760009        1.000000        0.00000000        0.00000000        0.00000000
     113         -1.759531        1.000000        0.00000000        0.00000000        0.00000000
     114         -1.759105        1.000000        0.00000000        0.00000000        0.00000000
     115         -1.758777        1.000000        0.00000000        0.00000000        0.00000000
     116         -1.757462        1.000000        0.00000000        0.00000000        0.00000000
     117         -1.756221        1.000000        0.00000000        0.00000000        0.00000000
     118         -1.755333        1.000000        0.00000000        0.00000000        0.00000000
     119         -1.754385        1.000000        0.00000000        0.00000000        0.00000000
     120         -1.752742        1.000000        0.00000000        0.00000000        0.00000000
     121         -1.131181        1.000000        0.01129119        0.00145250        0.00022029
     122         -1.128658        1.000000        0.01434864        0.00156904        0.00027026
     123         -1.128000        1.000000        0.05701814        0.00618727        0.00100149
     124         -1.126427        1.000000        0.06685247        0.00920189        0.00118067
     125         -1.120469        1.000000        0.01229909        0.00281129        0.00038018
     126         -1.119202        1.000000        0.01746878        0.00185653        0.00030073
     127         -1.117081        1.000000        0.01139377        0.00100225        0.00016640
     128         -1.116156        1.000000        0.00324082        0.00040933        0.00005928
     129         -1.115054        1.000000        0.00181314        0.00023143        0.00003928
     130         -1.111818        1.000000        0.01692920        0.00183329        0.00026469
     131         -1.111610        1.000000        0.00570542        0.00101256        0.00016464
     132         -1.110976        1.000000        0.03871399        0.00405479        0.00055134
     133         -1.109888        1.000000        0.04209841        0.00344794        0.00042966
     134         -1.108601        1.000000        0.02374486        0.00300434        0.00052990
     135         -1.108036        1.000000        0.05285342        0.00370391        0.00049450
     136         -1.107349        1.000000        0.00824060        0.00114609        0.00019263
     137         -1.106797        1.000000        0.02594533        0.00297271        0.00044561
     138         -1.106077        1.000000        0.03305005        0.00383202        0.00055838
     139         -1.104162        1.000000        0.01313698        0.00178030        0.00027422
     140         -1.102892        1.000000        0.02371340        0.00189200        0.00026233
     141         -1.102196        1.000000        0.03451282        0.00320644        0.00047096
     142         -1.101581        1.000000        0.02944088        0.00241038        0.00041766
     143         -1.101215        1.000000        0.02420537        0.00262435        0.00041071
     144         -1.099602        1.000000        0.01725923        0.00135588        0.00022670
     145         -1.098107        1.000000        0.02867128        0.00257990        0.00033855
     146         -1.097450        1.000000        0.03425712        0.00236392        0.00030353
     147         -1.097046        1.000000        0.04561924        0.00238725        0.00034338
     148         -1.095795        1.000000        0.03639968        0.00299421        0.00039584
     149         -1.095192        1.000000        0.07797342        0.00418057        0.00056049
     150         -1.093515        1.000000        0.05772014        0.00390147        0.00052814
     151         -1.093123        1.000000        0.02474697        0.00189339        0.00028334
     152         -1.092614        1.000000        0.03004383        0.00254591        0.00041652
     153         -1.091821        1.000000        0.02025371        0.00160537        0.00020617
     154         -1.090761        1.000000        0.02058509        0.00186218        0.00029917
     155         -1.090597        1.000000        0.01249987        0.00086499        0.00016699
     156         -1.089544        1.000000        0.01684350        0.00118194        0.00018589
     157         -1.088154        1.000000        0.01886432        0.00150533        0.00025560
     158         -1.086960        1.000000        0.08703644        0.00529079        0.00079411
     159         -1.086718        1.000000        0.07757054        0.00503540        0.00073639
     160         -1.085525        1.000000        0.02915346        0.00114789        0.00015240
     161         -1.084219        1.000000        0.12482754        0.00513674        0.00060159
     162         -1.082734        1.000000        0.07104754        0.00371373        0.00064653
     163         -1.082381        1.000000        0.00811446        0.00046360        0.00008818
     164         -1.080807        1.000000        0.09693830        0.00412412        0.00045418
     165         -1.080293        1.000000        0.03667676        0.00210738        0.00034966
     166         -1.079453        1.000000        0.08191755        0.00304450        0.00034359
     167         -1.078246        1.000000        0.07400369        0.00254260        0.00037979
     168         -1.077774        1.000000        0.02353809        0.00115836        0.00019147
     169         -1.077143        1.000000        0.08175509        0.00259971        0.00045854
     170         -1.076426        1.000000        0.06253112        0.00286238        0.00057060
     171         -1.076145        1.000000        0.09747944        0.00303166        0.00053668
     172         -1.074526        1.000000        0.04521598        0.00216191        0.00032305
     173         -1.074368        1.000000        0.05471990        0.00214158        0.00032449
     174         -1.073652        1.000000        0.08456559        0.00310413        0.00042741
     175         -1.072808        1.000000        0.03038825        0.00120208        0.00023456
     176         -1.072152        1.000000        0.05713228        0.00202356        0.00046753
     177         -1.071192        1.000000        0.03077177        0.00130208        0.00024518
     178         -1.070444        1.000000        0.03577632        0.00119729        0.00027840
     179         -1.070141        1.000000        0.06832946        0.00232107        0.00024691
     180         -1.069416        1.000000        0.05052554        0.00175998        0.00030647
     181         -1.069179        1.000000        0.02122305        0.00076021        0.00011506
     182         -1.067610        1.000000        0.03987567        0.00141523        0.00029158
     183         -1.066240        1.000000        0.02106283        0.00064361        0.00009933
     184         -1.065124        1.000000        0.03138588        0.00133824        0.00025490
     185         -1.064565        1.000000        0.03444483        0.00139381        0.00017893
     186         -1.063575        1.000000        0.01699569        0.00077522        0.00011874
     187         -1.062901        1.000000        0.04270672        0.00166844        0.00027669
     188         -1.062274        1.000000        0.06853306        0.00246275        0.00053092
     189         -1.061481        1.000000        0.05067417        0.00181278        0.00024969
     190         -1.061312        1.000000        0.02731008        0.00124238        0.00026875
     191         -1.060592        1.000000        0.05623739        0.00219070        0.00028174
     192         -1.059297        1.000000        0.05325196        0.00153384        0.00022440
     193         -1.058643        1.000000        0.05654737        0.00184452        0.00036409
     194         -1.058262        1.000000        0.00691554        0.00028356        0.00007907
     195         -1.057127        1.000000        0.05638473        0.00187890        0.00026848
     196         -1.056224        1.000000        0.00927852        0.00035774        0.00008087
     197         -1.056050        1.000000        0.04652443        0.00157123        0.00022299
     198         -1.054881        1.000000        0.03608626        0.00157389        0.00021786
     199         -1.054669        1.000000        0.03340047        0.00141599        0.00027681
     200         -1.053605        1.000000        0.07173307        0.00193845        0.00025751
     201         -1.053457        1.000000        0.10918394        0.00386305        0.00046019
     202         -1.052589        1.000000        0.02317195        0.00083494        0.00024613
     203         -1.052089        1.000000        0.10750993        0.00266165        0.00036014
     204         -1.051299        1.000000        0.03924734        0.00151677        0.00031364
     205         -1.050676        1.000000        0.04091322        0.00124363        0.00024648
     206         -1.050307        1.000000        0.05091334        0.00159812        0.00020570
     207         -1.049921        1.000000        0.04547502        0.00142177        0.00041365
     208         -1.049485        1.000000        0.03153685        0.00108788        0.00023018
     209         -1.049126        1.000000        0.07120218        0.00251264        0.00040690
     210         -1.048445        1.000000        0.05390670        0.00155312        0.00031121
     211         -1.048201        1.000000        0.03429615        0.00106475        0.00021891
     212         -1.047911        1.000000        0.09099553        0.00220612        0.00034992
     213         -1.047620        1.000000        0.03327733        0.00112713        0.00020261
     214         -1.046931        1.000000        0.02609620        0.00082203        0.00011967
     215         -1.046733        1.000000        0.05666436        0.00193096        0.00026093
     216         -1.046634        1.000000        0.07664545        0.00183475        0.00035476
     217         -1.045930        1.000000        0.04948720        0.00156026        0.00036317
     218         -1.045069        1.000000        0.02472430        0.00066252        0.00013698
     219         -1.044350        1.000000        0.03122310        0.00088995        0.00027162
     220         -1.043623        1.000000        0.00655175        0.00018697        0.00005801
     221         -1.043421        1.000000        0.00131693        0.00005140        0.00001067
     222         -1.042778        1.000000        0.05974459        0.00184045        0.00039293
     223         -1.042701        1.000000        0.12321298        0.00405908        0.00051000
     224         -1.042424        1.000000        0.05286412        0.00167471        0.00022494
     225         -1.041682        1.000000        0.07106269        0.00214708        0.00031207
     226         -1.041498        1.000000        0.01228569        0.00050192        0.00009908
     227         -1.040837        1.000000        0.03115361        0.00091569        0.00020257
     228         -1.040496        1.000000        0.09557416        0.00250713        0.00051512
     229         -1.040151        1.000000        0.06601694        0.00164843        0.00040653
     230         -1.039686        1.000000        0.10160915        0.00267835        0.00049276
     231         -1.038961        1.000000        0.12768758        0.00428987        0.00041155
     232         -1.038553        1.000000        0.07587666        0.00209468        0.00035084
     233         -1.038476        1.000000        0.16815721        0.00545086        0.00052240
     234         -1.038152        1.000000        0.02375783        0.00085288        0.00018427
     235         -1.038041        1.000000        0.04541546        0.00147240        0.00024098
     236         -1.036855        1.000000        0.02039519        0.00068770        0.00025817
     237         -1.036488        1.000000        0.01292396        0.00043444        0.00016566
     238         -1.036186        1.000000        0.03626518        0.00125814        0.00031871
     239         -1.036068        1.000000        0.05422448        0.00190264        0.00030299
     240         -1.035757        1.000000        0.02839281        0.00085740        0.00012705
     241         -1.035291        1.000000        0.04041428        0.00129371        0.00018174
     242         -1.035048        1.000000        0.01493494        0.00057198        0.00023610
     243         -1.035000        1.000000        0.04165317        0.00152500        0.00020095
     244         -1.034454        1.000000        0.01937257        0.00108201        0.00029640
     245         -1.034219        1.000000        0.00472622        0.00035670        0.00010430
     246         -1.033874        1.000000        0.03116901        0.00117814        0.00030525
     247         -1.033507        1.000000        0.07047971        0.00238100        0.00038157
     248         -1.033219        1.000000        0.00652903        0.00037697        0.00008288
     249         -1.033056        1.000000        0.06386926        0.00194637        0.00038782
     250         -1.032307        1.000000        0.00903533        0.00043724        0.00009612
     251         -1.031324        1.000000        0.00665276        0.00036968        0.00007166
     252         -1.031144        1.000000        0.03477934        0.00172000        0.00022657
     253         -1.030643        1.000000        0.00716298        0.00030220        0.00012745
     254         -1.030284        1.000000        0.02254194        0.00071985        0.00019120
     255         -1.030062        1.000000        0.04012144        0.00097788        0.00035346
     256         -1.029818        1.000000        0.00366302        0.00011175        0.00003931
     257         -1.028552        1.000000        0.01575681        0.00067278        0.00022536
     258         -1.027578        1.000000        0.00434486        0.00016076        0.00001495
     259         -1.027121        1.000000        0.00243335        0.00014106        0.00004840
     260         -1.026880        1.000000        0.02771701        0.00106183        0.00007989
     261         -1.026226        1.000000        0.00162169        0.00011266        0.00008480
     262         -1.025765        1.000000        0.01983658        0.00109064        0.00018947
     263         -1.025299        1.000000        0.10442618        0.00303487        0.00080008
     264         -1.025158        1.000000        0.00208391        0.00009387        0.00005741
     265         -1.025007        1.000000        0.00160417        0.00009906        0.00004762
     266         -1.024422        1.000000        0.00008657        0.00001304        0.00001053
     267         -1.023793        1.000000        0.01367181        0.00099558        0.00054127
     268         -1.023594        1.000000        0.00108619        0.00008428        0.00002586
     269         -1.023069        1.000000        0.00203825        0.00025460        0.00010052
     270         -1.022603        1.000000        0.00700535        0.00059850        0.00013005
     271         -1.022074        1.000000        0.00303661        0.00025995        0.00007783
     272         -1.021695        1.000000        0.01234825        0.00106867        0.00031241
     273         -1.021372        1.000000        0.04013586        0.00304671        0.00068161
     274         -1.021076        1.000000        0.00029913        0.00002292        0.00000574
     275         -1.019492        1.000000        0.00003442        0.00000317        0.00000145
     276         -1.018003        1.000000        0.00091425        0.00009677        0.00002826
     277         -1.016408        1.000000        0.00002370        0.00000147        0.00000095
     278         -1.016278        1.000000        0.00023274        0.00001442        0.00000832
     279         -1.015338        1.000000        0.00027360        0.00002282        0.00000427
     280         -1.013851        1.000000        0.00012844        0.00001815        0.00000566
     281         -1.010223        1.000000        0.00000347        0.00000082        0.00000033
     282         -1.009666        1.000000        0.00603028        0.00193713        0.00070990
     283         -1.007726        1.000000        0.00000296        0.00000060        0.00000035
     284         -1.007300        1.000000        0.00008041        0.00001731        0.00000828
     285         -1.006916        1.000000        0.00471139        0.00137136        0.00071328
     286         -0.889442        1.000000        0.00000000        0.00000000        0.00000000
     287         -0.869424        1.000000        0.00000000        0.00000000        0.00000000
     288         -0.867225        1.000000        0.00000000        0.00000000        0.00000000
     289         -0.864755        1.000000        0.00000000        0.00000000        0.00000000
     290         -0.860947        1.000000        0.00000000        0.00000000        0.00000000
     291         -0.846899        1.000000        0.00000000        0.00000000        0.00000000
     292         -0.844423        1.000000        0.00000000        0.00000000        0.00000000
     293         -0.843782        1.000000        0.00000000        0.00000000        0.00000000
     294         -0.840445        1.000000        0.00000000        0.00000000        0.00000000
     295         -0.821748        1.000000        0.00000000        0.00000000        0.00000000
     296         -0.818927        1.000000        0.00000000        0.00000000        0.00000000
     297         -0.814033        1.000000        0.00000000        0.00000000        0.00000000
     298         -0.808071        1.000000        0.00000000        0.00000000        0.00000000
     299         -0.807076        1.000000        0.00000000        0.00000000        0.00000000
     300         -0.806003        1.000000        0.00000000        0.00000000        0.00000000
     301         -0.805433        1.000000        0.00000000        0.00000000        0.00000000
     302         -0.803208        1.000000        0.00000000        0.00000000        0.00000000
     303         -0.802271        1.000000        0.00000000        0.00000000        0.00000000
     304         -0.801014        1.000000        0.00000000        0.00000000        0.00000000
     305         -0.800419        1.000000        0.00000000        0.00000000        0.00000000
     306         -0.800163        1.000000        0.00000000        0.00000000        0.00000000
     307         -0.798966        1.000000        0.00000000        0.00000000        0.00000000