# Projected DOS for list 14 of 1 atoms, at iteration step i = 0, E(Fermi) =    -0.245567 a.u.
#     MO Eigenvalue [a.u.]      Occupation                 s                 p                 d
       1         -3.122063        1.000000        0.00000000        0.00000000        0.00000000
       2         -3.121278        1.000000        0.00000000        0.00000000        0.00000000
       3         -3.121021        1.000000        0.00000000        0.00000000        0.00000000
       4         -3.120578        1.000000        0.00000000        0.00000000        0.00000000
       5         -3.120271        1.000000        0.00000000        0.00000000        0.00000000
       6         -3.119857        1.000000        0.00000000        0.00000000        0.00000000
       7         -3.119652        1.000000        0.00000000        0.00000000        0.00000000
       8         -3.119624        1.000000        0.00000000        0.00000000        0.00000000
       9         -3.119219        1.000000        0.00000000        0.00000000        0.00000000
      10         -3.119023        1.000000        0.00000000        0.00000000        0.00000000
      11         -3.118913        1.000000        0.00000000        0.00000000        0.00000000
      12         -3.118874        1.000000        0.00000000        0.00000000        0.00000000
      13         -3.118317        1.000000        0.00000000        0.00000000        0.00000000
      14         -3.118249        1.000000        0.00000000        0.00000000        0.00000000
      15         -3.117895        1.000000        0.00000000        0.00000000        0.00000000
      16         -3.117383        1.000000        0.00000000        0.00000000        0.00000000
      17         -3.117165        1.000000        0.00000000        0.00000000        0.00000000
      18         -3.116815        1.000000        0.00000000        0.00000000        0.00000000
      19         -3.116436        1.000000        0.00000000        0.00000000        0.00000000
      20         -3.116021        1.000000        0.00000000        0.00000000        0.00000000
      21         -3.115852        1.000000        0.00000000        0.00000000        0.00000000
      22         -3.115668        1.000000        0.00000000        0.00000000        0.00000000
      23         -3.115368        1.000000        0.00000000        0.00000000        0.00000000
      24         -3.115339        1.000000        0.00000000        0.00000000        0.00000000
      25         -3.115041        1.000000        0.00000000        0.00000000        0.00000000
      26         -3.114366        1.000000        0.00000000        0.00000000        0.00000000
      27         -3.113951        1.000000        0.00000000        0.00000000        0.00000000
      28         -3.113764        1.000000        0.00000000        0.00000000        0.00000000
      29         -3.112534        1.000000        0.00000000        0.00000000        0.00000000
      30         -3.111679        1.000000        0.00000000        0.00000000        0.00000000
      31         -1.784233        1.000000        0.00000000        0.00000000        0.00000000
      32         -1.782870        1.000000        0.00000000        0.00000000        0.00000000
      33         -1.782324        1.000000        0.00000000        0.00000000        0.00000000
      34         -1.782130        1.000000        0.00000000        0.00000000        0.00000000
      35         -1.781736        1.000000        0.00000000        0.00000000        0.00000000
      36         -1.781230        1.000000        0.00000000        0.00000000        0.00000000
      37         -1.780847        1.000000        0.00000000        0.00000000        0.00000000
      38         -1.780487        1.000000        0.00000000        0.00000000        0.00000000
      39         -1.780184        1.000000        0.00000000        0.00000000        0.00000000
      40         -1.779550        1.000000        0.00000000        0.00000000        0.00000000
      41         -1.779259        1.000000        0.00000000        0.00000000        0.00000000
      42         -1.778921        1.000000        0.00000000        0.00000000        0.00000000
      43         -1.778390        1.000000        0.00000000        0.00000000        0.00000000
      44         -1.778140        1.000000        0.00000000        0.00000000        0.00000000
      45         -1.777912        1.000000        0.00000000        0.00000000        0.00000000
      46         -1.777514        1.000000        0.00000000        0.00000000        0.00000000
      47         -1.777362        1.000000        0.00000000        0.00000000        0.00000000
      48         -1.776787        1.000000        0.00000000        0.00000000        0.00000000
      49         -1.776537        1.000000        0.00000000        0.00000000        0.00000000
      50         -1.776457        1.000000        0.00000000        0.00000000        0.00000000
      51         -1.776029        1.000000        0.00000000        0.00000000        0.00000000
      52         -1.774038        1.000000        0.00000000        0.00000000        0.00000000
      53         -1.773797        1.000000        0.00000000        0.00000000        0.00000000
      54         -1.773665        1.000000        0.00000000        0.00000000        0.00000000
      55         -1.772725        1.000000        0.00000000        0.00000000        0.00000000
      56         -1.772546        1.000000        0.00000000        0.00000000        0.00000000
      57         -1.772041        1.000000        0.00000000        0.00000000        0.00000000
      58         -1.771662        1.000000        0.00000000        0.00000000        0.00000000
      59         -1.771364        1.000000        0.00000000        0.00000000        0.00000000
      60         -1.770813        1.000000        0.00000000        0.00000000        0.00000000
      61         -1.770640        1.000000        0.00000000        0.00000000        0.00000000
      62         -1.770449        1.000000        0.00000000        0.00000000        0.00000000
      63         -1.770188        1.000000        0.00000000        0.00000000        0.00000000
      64         -1.770126        1.000000        0.00000000        0.00000000        0.00000000
      65         -1.769991        1.000000        0.00000000        0.00000000        0.00000000
      66         -1.769845        1.000000        0.00000000        0.00000000        0.00000000
      67         -1.769763        1.000000        0.00000000        0.00000000        0.00000000
      68         -1.769661        1.000000        0.00000000        0.00000000        0.00000000
      69         -1.769465        1.000000        0.00000000        0.00000000        0.00000000
      70         -1.769351        1.000000        0.00000000        0.00000000        0.00000000
      71         -1.769328        1.000000        0.00000000        0.00000000        0.00000000
      72         -1.769216        1.000000        0.00000000        0.00000000        0.00000000
      73         -1.769129        1.000000        0.00000000        0.00000000        0.00000000
      74         -1.769070        1.000000        0.00000000        0.00000000        0.00000000
      75         -1.768941        1.000000        0.00000000        0.00000000        0.00000000
      76         -1.768822        1.000000        0.00000000        0.00000000        0.00000000
      77         -1.768707        1.000000        0.00000000        0.00000000        0.00000000
      78         -1.768585        1.000000        0.00000000        0.00000000        0.00000000
      79         -1.768439        1.000000        0.00000000        0.00000000        0.00000000
      80         -1.768329        1.000000        0.00000000        0.00000000        0.00000000
      81         -1.768089        1.000000        0.00000000        0.00000000        0.00000000
      82         -1.767883        1.000000        0.00000000        0.00000000        0.00000000
      83         -1.767662        1.000000        0.00000000        0.00000000        0.00000000
      84         -1.767495        1.000000        0.00000000        0.00000000        0.00000000
      85         -1.767311        1.000000        0.00000000        0.00000000        0.00000000
      86         -1.767266        1.000000        0.00000000        0.00000000        0.00000000
      87         -1.767060        1.000000        0.00000000        0.00000000        0.00000000
      88         -1.767025        1.000000        0.00000000        0.00000000        0.00000000
      89         -1.766872        1.000000        0.00000000        0.00000000        0.00000000
      90         -1.766524        1.000000        0.00000000        0.00000000        0.00000000
      91         -1.766405        1.000000        0.00000000        0.00000000        0.00000000
      92         -1.766254        1.000000        0.00000000        0.00000000        0.00000000
      93         -1.766123        1.000000        0.00000000        0.00000000        0.00000000
      94         -1.765857        1.000000        0.00000000        0.00000000        0.00000000
      95         -1.765515        1.000000        0.00000000        0.00000000        0.00000000
      96         -1.765181        1.000000        0.00000000        0.00000000        0.00000000
      97         -1.765105        1.000000        0.00000000        0.00000000        0.00000000
      98         -1.764967        1.000000        0.00000000        0.00000000        0.00000000
      99         -1.764710        1.000000        0.00000000        0.00000000        0.00000000
     100         -1.764440        1.000000        0.00000000        0.00000000        0.00000000
     101         -1.764248        1.000000        0.00000000        0.00000000        0.00000000
     102         -1.763945        1.000000        0.00000000        0.00000000        0.00000000
     103         -1.763804        1.000000        0.00000000        0.00000000        0.00000000
     104         -1.763351        1.000000        0.00000000        0.00000000        0.00000000
     105         -1.763205        1.000000        0.00000000        0.00000000        0.00000000
     106         -1.763107        1.000000        0.00000000        0.00000000        0.00000000
     107         -1.762531        1.000000        0.00000000        0.00000000        0.00000000
     108         -1.762343        1.000000        0.00000000        0.00000000        0.00000000
     109         -1.761453        1.000000        0.00000000        0.00000000        0.00000000
     110         -1.760969        1.000000        0.00000000        0.00000000        0.00000000
     111         -1.760481        1.000000        0.00000000        0.00000000        0.00000000
     112         -1.760009        1.000000        0.00000000        0.00000000        0.00000000
     113         -1.759531        1.000000        0.00000000        0.00000000        0.00000000
     114         -1.759105        1.000000        0.00000000        0.00000000        0.00000000
     115         -1.758777        1.000000        0.00000000        0.00000000        0.00000000
     116         -1.757462        1.000000        0.00000000        0.00000000        0.00000000
     117         -1.756221        1.000000        0.00000000        0.00000000        0.00000000
     118         -1.755333        1.000000        0.00000000        0.00000000        0.00000000
     119         -1.754385        1.000000        0.00000000        0.00000000        0.00000000
     120         -1.752742        1.000000        0.00000000        0.00000000        0.00000000
     121         -1.131181        1.000000        0.00090165        0.00027946        0.00004866
     122         -1.128658        1.000000        0.00071787        0.00032246        0.00004179
     123         -1.128000        1.000000        0.00000767        0.00001068        0.00000081
     124         -1.126427        1.000000        0.00001826        0.00002605        0.00000186
     125         -1.120469        1.000000        0.00058406        0.00024683        0.00003018
     126         -1.119202        1.000000        0.00004077        0.00007533        0.00000318
     127         -1.117081        1.000000        0.00032063        0.00007800        0.00001876
     128         -1.116156        1.000000        0.00005642        0.00012639        0.00000591
     129         -1.115054        1.000000        0.01101725        0.00301638        0.00056224
     130         -1.111818        1.000000        0.00067978        0.00038175        0.00003118
     131         -1.111610        1.000000        0.00002576        0.00003151        0.00001525
     132         -1.110976        1.000000        0.00029484        0.00009378        0.00001439
     133         -1.109888        1.000000        0.00128444        0.00028582        0.00004769
     134         -1.108601        1.000000        0.00100717        0.00008281        0.00003419
     135         -1.108036        1.000000        0.00068143        0.00064230        0.00003691
     136         -1.107349        1.000000        0.00050741        0.00023780        0.00006019
     137         -1.106797        1.000000        0.00033010        0.00039945        0.00000968
     138         -1.106077        1.000000        0.00003526        0.00002425        0.00003220
     139         -1.104162        1.000000        0.00000157        0.00015525        0.00000235
     140         -1.102892        1.000000        0.00204799        0.00045260        0.00006365
     141         -1.102196        1.000000        0.00090981        0.00014707        0.00004106
     142         -1.101581        1.000000        0.00025310        0.00002184        0.00001360
     143         -1.101215        1.000000        0.00044548        0.00011644        0.00002566
     144         -1.099602        1.000000        0.00090459        0.00008263        0.00006552
     145         -1.098107        1.000000        0.00054550        0.00002241        0.00003555
     146         -1.097450        1.000000        0.00002163        0.00018976        0.00000787
     147         -1.097046        1.000000        0.00421995        0.00019463        0.00012421
     148         -1.095795        1.000000        0.00034967        0.00033539        0.00003307
     149         -1.095192        1.000000        0.00023745        0.00006293        0.00002182
     150         -1.093515        1.000000        0.00138282        0.00013806        0.00003534
     151         -1.093123        1.000000        0.00234933        0.00012691        0.00010066
     152         -1.092614        1.000000        0.00001148        0.00035858        0.00003359
     153         -1.091821        1.000000        0.00081157        0.00012419        0.00005427
     154         -1.090761        1.000000        0.00023919        0.00083476        0.00004860
     155         -1.090597        1.000000        0.00388359        0.00032077        0.00008476
     156         -1.089544        1.000000        0.00034266        0.00002459        0.00003763
     157         -1.088154        1.000000        0.00476456        0.00092447        0.00014809
     158         -1.086960        1.000000        0.00004687        0.00002899        0.00001517
     159         -1.086718        1.000000        0.00031538        0.00005759        0.00000735
     160         -1.085525        1.000000        0.00128052        0.00018570        0.00002705
     161         -1.084219        1.000000        0.00062552        0.00026158        0.00003014
     162         -1.082734        1.000000        0.00024891        0.00004794        0.00000777
     163         -1.082381        1.000000        0.00000969        0.00005038        0.00000731
     164         -1.080807        1.000000        0.00043269        0.00055944        0.00003515
     165         -1.080293        1.000000        0.00047089        0.00002096        0.00001336
     166         -1.079453        1.000000        0.00015567        0.00025142        0.00013023
     167         -1.078246        1.000000        0.00009944        0.00007405        0.00000161
     168         -1.077774        1.000000        0.00343197        0.00018456        0.00005993
     169         -1.077143        1.000000        0.00058450        0.00001657        0.00002924
     170         -1.076426        1.000000        0.00255839        0.00011097        0.00003334
     171         -1.076145        1.000000        0.00000359        0.00000801        0.00002261
     172         -1.074526        1.000000        0.00055933        0.00039935        0.00005714
     173         -1.074368        1.000000        0.00016925        0.00011405        0.00002690
     174         -1.073652        1.000000        0.00075861        0.00026890        0.00000647
     175         -1.072808        1.000000        0.00000110        0.00041247        0.00005743
     176         -1.072152        1.000000        0.00232690        0.00016361        0.00005396
     177         -1.071192        1.000000        0.00648135        0.00052443        0.00010465
     178         -1.070444        1.000000        0.00113344        0.00061006        0.00001392
     179         -1.070141        1.000000        0.00025009        0.00072465        0.00006052
     180         -1.069416        1.000000        0.00482564        0.00013121        0.00012128
     181         -1.069179        1.000000        0.00088614        0.00002032        0.00004710
     182         -1.067610        1.000000        0.00000144        0.00002033        0.00000920
     183         -1.066240        1.000000        0.00004427        0.00007051        0.00007392
     184         -1.065124        1.000000        0.00018014        0.00058494        0.00004452
     185         -1.064565        1.000000        0.00006202        0.00045120        0.00000828
     186         -1.063575        1.000000        0.00003519        0.00003883        0.00000457
     187         -1.062901        1.000000        0.00127836        0.00028737        0.00002008
     188         -1.062274        1.000000        0.00071869        0.00012360        0.00004043
     189         -1.061481        1.000000        0.00083684        0.00020544        0.00000621
     190         -1.061312        1.000000        0.00018060        0.00005029        0.00000914
     191         -1.060592        1.000000        0.00000917        0.00002911        0.00004260
     192         -1.059297        1.000000        0.00140528        0.00002940        0.00002836
     193         -1.058643        1.000000        0.00116943        0.00002538        0.00007756
     194         -1.058262        1.000000        0.00009441        0.00039313        0.00002434
     195         -1.057127        1.000000        0.00026701        0.00009465        0.00001136
     196         -1.056224        1.000000        0.00000283        0.00001726        0.00002320
     197         -1.056050        1.000000        0.00009339        0.00002264        0.00001604
     198         -1.054881        1.000000        0.00101371        0.00000875        0.00003790
     199         -1.054669        1.000000        0.00088268        0.00016710        0.00001881
     200         -1.053605        1.000000        0.00000166        0.00005373        0.00001350
     201         -1.053457        1.000000        0.00192005        0.00016958        0.00001283
     202         -1.052589        1.000000        0.00021657        0.00002179        0.00001298
     203         -1.052089        1.000000        0.00108339        0.00026843        0.00008846
     204         -1.051299        1.000000        0.00403925        0.00036276        0.00008229
     205         -1.050676        1.000000        0.00827942        0.00031260        0.00014064
     206         -1.050307        1.000000        0.00098484        0.00004073        0.00001631
     207         -1.049921        1.000000        0.00000004        0.00000319        0.00000106
     208         -1.049485        1.000000        0.00441152        0.00046808        0.00002861
     209         -1.049126        1.000000        0.00139621        0.00005385        0.00002127
     210         -1.048445        1.000000        0.00005572        0.00019552        0.00002815
     211         -1.048201        1.000000        0.00046156        0.00002611        0.00001130
     212         -1.047911        1.000000        0.00424346        0.00005294        0.00012540
     213         -1.047620        1.000000        0.00016456        0.00018001        0.00000347
     214         -1.046931        1.000000        0.00031122        0.00013958        0.00006842
     215         -1.046733        1.000000        0.00047946        0.00041060        0.00000860
     216         -1.046634        1.000000        0.00020137        0.00002441        0.00002977
     217         -1.045930        1.000000        0.00042504        0.00005911        0.00003339
     218         -1.045069        1.000000        0.00000295        0.00008834        0.00000762
     219         -1.044350        1.000000        0.00000002        0.00006101        0.00002174
     220         -1.043623        1.000000        0.00036685        0.00006017        0.00005111
     221         -1.043421        1.000000        0.00000071        0.00003764        0.00000929
     222         -1.042778        1.000000        0.00044588        0.00001581        0.00002148
     223         -1.042701        1.000000        0.00013398        0.00000587        0.00001046
     224         -1.042424        1.000000        0.00001779        0.00002250        0.00001753
     225         -1.041682        1.000000        0.00013436        0.00002655        0.00002192
     226         -1.041498        1.000000        0.00030045        0.00001448        0.00001584
     227         -1.040837        1.000000        0.00012785        0.00003142        0.00000973
     228         -1.040496        1.000000        0.00020885        0.00003135        0.00000477
     229         -1.040151        1.000000        0.00041801        0.00001046        0.00002479
     230         -1.039686        1.000000        0.00025107        0.00005424        0.00001122
     231         -1.038961        1.000000        0.00000418        0.00001723        0.00002689
     232         -1.038553        1.000000        0.00033624        0.00000900        0.00000529
     233         -1.038476        1.000000        0.00002024        0.00000119        0.00000449
     234         -1.038152        1.000000        0.00044253        0.00002595        0.00000877
     235         -1.038041        1.000000        0.00000306        0.00001528        0.00002752
     236         -1.036855        1.000000        0.00091023        0.00001084        0.00000669
     237         -1.036488        1.000000        0.00006540        0.00004298        0.00005136
     238         -1.036186        1.000000        0.00019414        0.00004851        0.00000795
     239         -1.036068        1.000000        0.00004672        0.00000368        0.00000369
     240         -1.035757        1.000000        0.00000231        0.00000689        0.00000386
     241         -1.035291        1.000000        0.00000247        0.00000987        0.00000176
     242         -1.035048        1.000000        0.00080056        0.00001262        0.00002215
     243         -1.035000        1.000000        0.00071171        0.00003153        0.00001264
     244         -1.034454        1.000000        0.00000339        0.00001021        0.00000319
     245         -1.034219        1.000000        0.00003374        0.00000663        0.00000373
     246         -1.033874        1.000000        0.00039011        0.00001527        0.00000446
     247         -1.033507        1.000000        0.00383879        0.00012649        0.00006388
     248         -1.033219        1.000000        0.00004108        0.00002507        0.00000711
     249         -1.033056        1.000000        0.00054510        0.00005701        0.00003306
     250         -1.032307        1.000000        0.00000658        0.00001261        0.00000331
     251         -1.031324        1.000000        0.00164807        0.00002087        0.00001761
     252         -1.031144        1.000000        0.00136553        0.00007083        0.00001425
     253         -1.030643        1.000000        0.00000110        0.00001318        0.00000654
     254         -1.030284        1.000000        0.00011835        0.00000318        0.00000217
     255         -1.030062        1.000000        0.00013450        0.00000817        0.00000300
     256         -1.029818        1.000000        0.00000795        0.00000332        0.00000039
     257         -1.028552        1.000000        0.00507390        0.00009931        0.00005247
     258         -1.027578        1.000000        0.00049004        0.00001342        0.00000879
     259         -1.027121        1.000000        0.00005678        0.00000631        0.00000475
     260         -1.026880        1.000000        0.00124004        0.00005000        0.00004960
     261         -1.026226        1.000000        0.00046180        0.00001322        0.00000291
     262         -1.025765        1.000000        0.00735046        0.00020741        0.00017792
     263         -1.025299        1.000000        0.00000713        0.00000256        0.00000094
     264         -1.025158        1.000000        0.00004860        0.00000160        0.00000159
     265         -1.025007        1.000000        0.00072276        0.00000698        0.00000366
     266         -1.024422        1.000000        0.00096637        0.00001725        0.00001340
     267         -1.023793        1.000000        0.00498534        0.00004987        0.00009519
     268         -1.023594        1.000000        0.00000065        0.00000184        0.00000100
     269         -1.023069        1.000000        0.00001004        0.00004598        0.00000877
     270         -1.022603        1.000000        0.00213777        0.00005390        0.00000832
     271         -1.022074        1.000000        0.00002464        0.00000143        0.00000033
     272         -1.021695        1.000000        0.00003442        0.00000222        0.00000032
     273         -1.021372        1.000000        0.00001056        0.00000336        0.00000131
     274         -1.021076        1.000000        0.00004492        0.00000324        0.00000079
     275         -1.019492        1.000000        0.00000310        0.00000173        0.00000199
     276         -1.018003        1.000000        0.00059993        0.00021959        0.00033339
     277         -1.016408        1.000000        0.00110617        0.00001275        0.00000584
     278         -1.016278        1.000000        0.01557823        0.00017333        0.00007723
     279         -1.015338        1.000000        0.00023135        0.00000201        0.00000519
     280         -1.013851        1.000000        0.41427025        0.00262824        0.00027457
     281         -1.010223        1.000000        0.00006491        0.00000077        0.00000021
     282         -1.009666        1.000000        0.00003517        0.00000184        0.00000361
     283         -1.007726        1.000000        0.00002659        0.00000045        0.00000010
     284         -1.007300        1.000000        0.00022039        0.00000146        0.00000046
     285         -1.006916        1.000000        0.00088938        0.00000530        0.00000265
     286         -0.889442        1.000000        0.00000000        0.00000000        0.00000000
     287         -0.869424        1.000000        0.00000000        0.00000000        0.00000000
     288         -0.867225        1.000000        0.00000000        0.00000000        0.00000000
     289         -0.864755        1.000000        0.00000000        0.00000000        0.00000000
     290         -0.860947        1.000000        0.00000000        0.00000000        0.00000000
     291         -0.846899        1.000000        0.00000000        0.00000000        0.00000000
     292         -0.844423        1.000000        0.00000000        0.00000000        0.00000000
     293         -0.843782        1.000000        0.00000000        0.00000000        0.00000000
     294         -0.840445        1.000000        0.00000000        0.00000000        0.00000000
     295         -0.821748        1.000000        0.00000000        0.00000000        0.00000000
     296         -0.818927        1.000000        0.00000000        0.00000000        0.00000000
     297         -0.814033        1.000000        0.00000000        0.00000000        0.00000000
     298         -0.808071        1.000000        0.00000000        0.00000000        0.00000000
     299         -0.807076        1.000000        0.00000000        0.00000000        0.00000000
     300         -0.806003        1.000000        0.00000000        0.00000000        0.00000000
     301         -0.805433        1.000000        0.00000000        0.00000000        0.00000000
     302         -0.803208        1.000000        0.00000000        0.00000000        0.00000000
     303         -0.802271        1.000000        0.00000000        0.00000000        0.00000000
     304         -0.801014        1.000000        0.00000000        0.00000000        0.00000000
     305         -0.800419        1.000000        0.00000000        0.00000000        0.00000000
     306         -0.800163        1.000000        0.00000000        0.00000000        0.00000000
     307         -0.798966        1.000000        0.00000000        0.00000000        0.00000000