# Projected DOS for list 85 of 1 atoms, at iteration step i = 0, E(Fermi) =    -0.245567 a.u.
#     MO Eigenvalue [a.u.]      Occupation                 s                 p                 d
       1         -3.122063        1.000000        0.00000000        0.00000000        0.00000000
       2         -3.121278        1.000000        0.00000000        0.00000000        0.00000000
       3         -3.121021        1.000000        0.00000000        0.00000000        0.00000000
       4         -3.120578        1.000000        0.00000000        0.00000000        0.00000000
       5         -3.120271        1.000000        0.00000000        0.00000000        0.00000000
       6         -3.119857        1.000000        0.00000000        0.00000000        0.00000000
       7         -3.119652        1.000000        0.00000000        0.00000000        0.00000000
       8         -3.119624        1.000000        0.00000000        0.00000000        0.00000000
       9         -3.119219        1.000000        0.00000000        0.00000000        0.00000000
      10         -3.119023        1.000000        0.00000000        0.00000000        0.00000000
      11         -3.118913        1.000000        0.00000000        0.00000000        0.00000000
      12         -3.118874        1.000000        0.00000000        0.00000000        0.00000000
      13         -3.118317        1.000000        0.00000000        0.00000000        0.00000000
      14         -3.118249        1.000000        0.00000000        0.00000000        0.00000000
      15         -3.117895        1.000000        0.00000000        0.00000000        0.00000000
      16         -3.117383        1.000000        0.00000000        0.00000000        0.00000000
      17         -3.117165        1.000000        0.00000000        0.00000000        0.00000000
      18         -3.116815        1.000000        0.00000000        0.00000000        0.00000000
      19         -3.116436        1.000000        0.00000000        0.00000000        0.00000000
      20         -3.116021        1.000000        0.00000000        0.00000000        0.00000000
      21         -3.115852        1.000000        0.00000000        0.00000000        0.00000000
      22         -3.115668        1.000000        0.00000000        0.00000000        0.00000000
      23         -3.115368        1.000000        0.00000000        0.00000000        0.00000000
      24         -3.115339        1.000000        0.00000000        0.00000000        0.00000000
      25         -3.115041        1.000000        0.00000000        0.00000000        0.00000000
      26         -3.114366        1.000000        0.00000000        0.00000000        0.00000000
      27         -3.113951        1.000000        0.00000000        0.00000000        0.00000000
      28         -3.113764        1.000000        0.00000000        0.00000000        0.00000000
      29         -3.112534        1.000000        0.00000000        0.00000000        0.00000000
      30         -3.111679        1.000000        0.00000000        0.00000000        0.00000000
      31         -1.784233        1.000000        0.00000000        0.00000000        0.00000000
      32         -1.782870        1.000000        0.00000000        0.00000000        0.00000000
      33         -1.782324        1.000000        0.00000000        0.00000000        0.00000000
      34         -1.782130        1.000000        0.00000000        0.00000000        0.00000000
      35         -1.781736        1.000000        0.00000000        0.00000000        0.00000000
      36         -1.781230        1.000000        0.00000000        0.00000000        0.00000000
      37         -1.780847        1.000000        0.00000000        0.00000000        0.00000000
      38         -1.780487        1.000000        0.00000000        0.00000000        0.00000000
      39         -1.780184        1.000000        0.00000000        0.00000000        0.00000000
      40         -1.779550        1.000000        0.00000000        0.00000000        0.00000000
      41         -1.779259        1.000000        0.00000000        0.00000000        0.00000000
      42         -1.778921        1.000000        0.00000000        0.00000000        0.00000000
      43         -1.778390        1.000000        0.00000000        0.00000000        0.00000000
      44         -1.778140        1.000000        0.00000000        0.00000000        0.00000000
      45         -1.777912        1.000000        0.00000000        0.00000000        0.00000000
      46         -1.777514        1.000000        0.00000000        0.00000000        0.00000000
      47         -1.777362        1.000000        0.00000000        0.00000000        0.00000000
      48         -1.776787        1.000000        0.00000000        0.00000000        0.00000000
      49         -1.776537        1.000000        0.00000000        0.00000000        0.00000000
      50         -1.776457        1.000000        0.00000000        0.00000000        0.00000000
      51         -1.776029        1.000000        0.00000000        0.00000000        0.00000000
      52         -1.774038        1.000000        0.00000000        0.00000000        0.00000000
      53         -1.773797        1.000000        0.00000000        0.00000000        0.00000000
      54         -1.773665        1.000000        0.00000000        0.00000000        0.00000000
      55         -1.772725        1.000000        0.00000000        0.00000000        0.00000000
      56         -1.772546        1.000000        0.00000000        0.00000000        0.00000000
      57         -1.772041        1.000000        0.00000000        0.00000000        0.00000000
      58         -1.771662        1.000000        0.00000000        0.00000000        0.00000000
      59         -1.771364        1.000000        0.00000000        0.00000000        0.00000000
      60         -1.770813        1.000000        0.00000000        0.00000000        0.00000000
      61         -1.770640        1.000000        0.00000000        0.00000000        0.00000000
      62         -1.770449        1.000000        0.00000000        0.00000000        0.00000000
      63         -1.770188        1.000000        0.00000000        0.00000000        0.00000000
      64         -1.770126        1.000000        0.00000000        0.00000000        0.00000000
      65         -1.769991        1.000000        0.00000000        0.00000000        0.00000000
      66         -1.769845        1.000000        0.00000000        0.00000000        0.00000000
      67         -1.769763        1.000000        0.00000000        0.00000000        0.00000000
      68         -1.769661        1.000000        0.00000000        0.00000000        0.00000000
      69         -1.769465        1.000000        0.00000000        0.00000000        0.00000000
      70         -1.769351        1.000000        0.00000000        0.00000000        0.00000000
      71         -1.769328        1.000000        0.00000000        0.00000000        0.00000000
      72         -1.769216        1.000000        0.00000000        0.00000000        0.00000000
      73         -1.769129        1.000000        0.00000000        0.00000000        0.00000000
      74         -1.769070        1.000000        0.00000000        0.00000000        0.00000000
      75         -1.768941        1.000000        0.00000000        0.00000000        0.00000000
      76         -1.768822        1.000000        0.00000000        0.00000000        0.00000000
      77         -1.768707        1.000000        0.00000000        0.00000000        0.00000000
      78         -1.768585        1.000000        0.00000000        0.00000000        0.00000000
      79         -1.768439        1.000000        0.00000000        0.00000000        0.00000000
      80         -1.768329        1.000000        0.00000000        0.00000000        0.00000000
      81         -1.768089        1.000000        0.00000000        0.00000000        0.00000000
      82         -1.767883        1.000000        0.00000000        0.00000000        0.00000000
      83         -1.767662        1.000000        0.00000000        0.00000000        0.00000000
      84         -1.767495        1.000000        0.00000000        0.00000000        0.00000000
      85         -1.767311        1.000000        0.00000000        0.00000000        0.00000000
      86         -1.767266        1.000000        0.00000000        0.00000000        0.00000000
      87         -1.767060        1.000000        0.00000000        0.00000000        0.00000000
      88         -1.767025        1.000000        0.00000000        0.00000000        0.00000000
      89         -1.766872        1.000000        0.00000000        0.00000000        0.00000000
      90         -1.766524        1.000000        0.00000000        0.00000000        0.00000000
      91         -1.766405        1.000000        0.00000000        0.00000000        0.00000000
      92         -1.766254        1.000000        0.00000000        0.00000000        0.00000000
      93         -1.766123        1.000000        0.00000000        0.00000000        0.00000000
      94         -1.765857        1.000000        0.00000000        0.00000000        0.00000000
      95         -1.765515        1.000000        0.00000000        0.00000000        0.00000000
      96         -1.765181        1.000000        0.00000000        0.00000000        0.00000000
      97         -1.765105        1.000000        0.00000000        0.00000000        0.00000000
      98         -1.764967        1.000000        0.00000000        0.00000000        0.00000000
      99         -1.764710        1.000000        0.00000000        0.00000000        0.00000000
     100         -1.764440        1.000000        0.00000000        0.00000000        0.00000000
     101         -1.764248        1.000000        0.00000000        0.00000000        0.00000000
     102         -1.763945        1.000000        0.00000000        0.00000000        0.00000000
     103         -1.763804        1.000000        0.00000000        0.00000000        0.00000000
     104         -1.763351        1.000000        0.00000000        0.00000000        0.00000000
     105         -1.763205        1.000000        0.00000000        0.00000000        0.00000000
     106         -1.763107        1.000000        0.00000000        0.00000000        0.00000000
     107         -1.762531        1.000000        0.00000000        0.00000000        0.00000000
     108         -1.762343        1.000000        0.00000000        0.00000000        0.00000000
     109         -1.761453        1.000000        0.00000000        0.00000000        0.00000000
     110         -1.760969        1.000000        0.00000000        0.00000000        0.00000000
     111         -1.760481        1.000000        0.00000000        0.00000000        0.00000000
     112         -1.760009        1.000000        0.00000000        0.00000000        0.00000000
     113         -1.759531        1.000000        0.00000000        0.00000000        0.00000000
     114         -1.759105        1.000000        0.00000000        0.00000000        0.00000000
     115         -1.758777        1.000000        0.00000000        0.00000000        0.00000000
     116         -1.757462        1.000000        0.00000000        0.00000000        0.00000000
     117         -1.756221        1.000000        0.00000000        0.00000000        0.00000000
     118         -1.755333        1.000000        0.00000000        0.00000000        0.00000000
     119         -1.754385        1.000000        0.00000000        0.00000000        0.00000000
     120         -1.752742        1.000000        0.00000000        0.00000000        0.00000000
     121         -1.131181        1.000000        0.00136173        0.00018987        0.00004911
     122         -1.128658        1.000000        0.00000875        0.00079871        0.00014530
     123         -1.128000        1.000000        0.00000141        0.00023170        0.00003975
     124         -1.126427        1.000000        0.00064988        0.00050849        0.00011630
     125         -1.120469        1.000000        0.00186490        0.00026478        0.00002806
     126         -1.119202        1.000000        0.00111278        0.00126241        0.00024165
     127         -1.117081        1.000000        0.00387507        0.00087624        0.00012862
     128         -1.116156        1.000000        0.00436308        0.00415354        0.00085341
     129         -1.115054        1.000000        0.00153281        0.00090166        0.00017703
     130         -1.111818        1.000000        0.00000031        0.00044076        0.00009640
     131         -1.111610        1.000000        0.00044838        0.00131808        0.00041667
     132         -1.110976        1.000000        0.00400638        0.00339278        0.00106935
     133         -1.109888        1.000000        0.00190025        0.00087301        0.00028806
     134         -1.108601        1.000000        0.00063679        0.00413697        0.00105250
     135         -1.108036        1.000000        0.00220866        0.00177610        0.00075030
     136         -1.107349        1.000000        0.00048855        0.00100658        0.00027134
     137         -1.106797        1.000000        0.00228812        0.00391540        0.00111950
     138         -1.106077        1.000000        0.00041854        0.00034542        0.00008932
     139         -1.104162        1.000000        0.00042155        0.00034005        0.00012589
     140         -1.102892        1.000000        0.00130610        0.00087266        0.00021208
     141         -1.102196        1.000000        0.00114596        0.00013835        0.00005735
     142         -1.101581        1.000000        0.00020799        0.00505346        0.00114391
     143         -1.101215        1.000000        0.00090534        0.00107805        0.00034210
     144         -1.099602        1.000000        0.00214789        0.00260287        0.00066743
     145         -1.098107        1.000000        0.01105955        0.00186521        0.00059409
     146         -1.097450        1.000000        0.00004485        0.00040275        0.00008907
     147         -1.097046        1.000000        0.00581863        0.00194111        0.00078205
     148         -1.095795        1.000000        0.00050404        0.00089490        0.00029224
     149         -1.095192        1.000000        0.00000857        0.00079812        0.00023062
     150         -1.093515        1.000000        0.00129035        0.00021720        0.00009767
     151         -1.093123        1.000000        0.01423171        0.00088009        0.00021264
     152         -1.092614        1.000000        0.00060934        0.00174360        0.00056140
     153         -1.091821        1.000000        0.00152911        0.00132262        0.00037483
     154         -1.090761        1.000000        0.00619614        0.00110781        0.00052286
     155         -1.090597        1.000000        0.00020330        0.00154084        0.00056196
     156         -1.089544        1.000000        0.00004531        0.00015968        0.00002874
     157         -1.088154        1.000000        0.00192776        0.00055864        0.00016006
     158         -1.086960        1.000000        0.00031796        0.00018015        0.00006746
     159         -1.086718        1.000000        0.00085267        0.00212359        0.00067637
     160         -1.085525        1.000000        0.00015367        0.00027196        0.00009927
     161         -1.084219        1.000000        0.00093557        0.00185996        0.00065975
     162         -1.082734        1.000000        0.00000135        0.00115248        0.00041412
     163         -1.082381        1.000000        0.00429603        0.00049881        0.00008442
     164         -1.080807        1.000000        0.00058995        0.00030710        0.00015856
     165         -1.080293        1.000000        0.00183800        0.00028396        0.00005177
     166         -1.079453        1.000000        0.00000709        0.00045291        0.00021460
     167         -1.078246        1.000000        0.00140244        0.00183066        0.00070378
     168         -1.077774        1.000000        0.00978257        0.00175635        0.00050299
     169         -1.077143        1.000000        0.00671504        0.00495447        0.00163426
     170         -1.076426        1.000000        0.00028444        0.00087819        0.00022034
     171         -1.076145        1.000000        0.00042985        0.00048254        0.00012878
     172         -1.074526        1.000000        0.00067092        0.00031256        0.00015801
     173         -1.074368        1.000000        0.00048859        0.00183304        0.00066915
     174         -1.073652        1.000000        0.00020061        0.00025750        0.00008455
     175         -1.072808        1.000000        0.00230636        0.00162315        0.00049553
     176         -1.072152        1.000000        0.00112967        0.00270505        0.00098769
     177         -1.071192        1.000000        0.00004963        0.00042710        0.00014344
     178         -1.070444        1.000000        0.00047720        0.00065110        0.00032701
     179         -1.070141        1.000000        0.00484140        0.00249772        0.00076681
     180         -1.069416        1.000000        0.00006008        0.00181083        0.00068015
     181         -1.069179        1.000000        0.00293690        0.00097089        0.00026221
     182         -1.067610        1.000000        0.00070140        0.00384963        0.00129901
     183         -1.066240        1.000000        0.00012404        0.00177393        0.00056045
     184         -1.065124        1.000000        0.00153419        0.00183402        0.00075167
     185         -1.064565        1.000000        0.00473490        0.00296728        0.00141761
     186         -1.063575        1.000000        0.00571772        0.00081646        0.00036223
     187         -1.062901        1.000000        0.00016739        0.00006109        0.00002428
     188         -1.062274        1.000000        0.00275372        0.00145249        0.00063401
     189         -1.061481        1.000000        0.00065019        0.00276120        0.00102042
     190         -1.061312        1.000000        0.00288018        0.00037820        0.00019649
     191         -1.060592        1.000000        0.00030645        0.00065952        0.00023983
     192         -1.059297        1.000000        0.00020662        0.00012318        0.00004726
     193         -1.058643        1.000000        0.00031721        0.00169948        0.00058043
     194         -1.058262        1.000000        0.00016303        0.00139625        0.00064720
     195         -1.057127        1.000000        0.00049115        0.00028757        0.00013650
     196         -1.056224        1.000000        0.00000228        0.00039787        0.00012173
     197         -1.056050        1.000000        0.00004924        0.00140301        0.00056339
     198         -1.054881        1.000000        0.00002887        0.00043585        0.00016703
     199         -1.054669        1.000000        0.00035683        0.00029418        0.00015532
     200         -1.053605        1.000000        0.00022799        0.00448226        0.00189293
     201         -1.053457        1.000000        0.00043814        0.00082443        0.00031465
     202         -1.052589        1.000000        0.00000466        0.00028951        0.00009440
     203         -1.052089        1.000000        0.00019812        0.00280478        0.00113587
     204         -1.051299        1.000000        0.00000365        0.00166222        0.00067302
     205         -1.050676        1.000000        0.00003896        0.00048918        0.00020577
     206         -1.050307        1.000000        0.00011481        0.00101498        0.00038917
     207         -1.049921        1.000000        0.00037555        0.00186478        0.00079269
     208         -1.049485        1.000000        0.00002539        0.00071201        0.00029751
     209         -1.049126        1.000000        0.00002284        0.00017655        0.00006820
     210         -1.048445        1.000000        0.00007212        0.00152458        0.00067659
     211         -1.048201        1.000000        0.00037411        0.00388428        0.00156085
     212         -1.047911        1.000000        0.00007778        0.00028620        0.00010388
     213         -1.047620        1.000000        0.00000326        0.00107409        0.00040793
     214         -1.046931        1.000000        0.00000031        0.00039444        0.00016655
     215         -1.046733        1.000000        0.00000333        0.00030972        0.00014051
     216         -1.046634        1.000000        0.00008008        0.00108391        0.00043414
     217         -1.045930        1.000000        0.00003047        0.00242237        0.00093361
     218         -1.045069        1.000000        0.00010555        0.00272070        0.00105018
     219         -1.044350        1.000000        0.00011269        0.00130139        0.00058196
     220         -1.043623        1.000000        0.00017966        0.00053812        0.00019764
     221         -1.043421        1.000000        0.00003770        0.00015689        0.00006107
     222         -1.042778        1.000000        0.00005109        0.00049254        0.00020826
     223         -1.042701        1.000000        0.00011981        0.00099476        0.00046097
     224         -1.042424        1.000000        0.00012859        0.00086623        0.00039722
     225         -1.041682        1.000000        0.00022771        0.00282099        0.00113499
     226         -1.041498        1.000000        0.00011319        0.00261289        0.00089547
     227         -1.040837        1.000000        0.00000919        0.00132907        0.00054484
     228         -1.040496        1.000000        0.00003142        0.00200766        0.00079548
     229         -1.040151        1.000000        0.00009678        0.00051777        0.00017910
     230         -1.039686        1.000000        0.00013295        0.00036180        0.00013434
     231         -1.038961        1.000000        0.00003570        0.00015201        0.00008467
     232         -1.038553        1.000000        0.00002373        0.00105985        0.00038914
     233         -1.038476        1.000000        0.00014616        0.00901956        0.00384293
     234         -1.038152        1.000000        0.00002493        0.00913802        0.00359522
     235         -1.038041        1.000000        0.00001129        0.00580048        0.00242885
     236         -1.036855        1.000000        0.00006384        0.00727405        0.00302774
     237         -1.036488        1.000000        0.00008315        0.00216526        0.00082198
     238         -1.036186        1.000000        0.00000993        0.00182695        0.00069647
     239         -1.036068        1.000000        0.00002471        0.00162816        0.00056611
     240         -1.035757        1.000000        0.00007818        0.00147682        0.00060465
     241         -1.035291        1.000000        0.00000344        0.00371288        0.00141037
     242         -1.035048        1.000000        0.00027108        0.00712106        0.00246322
     243         -1.035000        1.000000        0.00005511        0.00372494        0.00120355
     244         -1.034454        1.000000        0.00000394        0.00112564        0.00038326
     245         -1.034219        1.000000        0.00003648        0.00051680        0.00018499
     246         -1.033874        1.000000        0.00001040        0.00229081        0.00083068
     247         -1.033507        1.000000        0.00000085        0.00090287        0.00037784
     248         -1.033219        1.000000        0.00022919        0.02235992        0.00944301
     249         -1.033056        1.000000        0.00008094        0.00372524        0.00136280
     250         -1.032307        1.000000        0.00045037        0.04385971        0.01677904
     251         -1.031324        1.000000        0.00011691        0.00584515        0.00207366
     252         -1.031144        1.000000        0.00000072        0.00107848        0.00046546
     253         -1.030643        1.000000        0.00005230        0.00304363        0.00121052
     254         -1.030284        1.000000        0.00001275        0.00210216        0.00094212
     255         -1.030062        1.000000        0.00000547        0.00032919        0.00014142
     256         -1.029818        1.000000        0.00007103        0.00390460        0.00164706
     257         -1.028552        1.000000        0.00000017        0.00051569        0.00024541
     258         -1.027578        1.000000        0.00000016        0.00009909        0.00003912
     259         -1.027121        1.000000        0.00004085        0.07916145        0.03331915
     260         -1.026880        1.000000        0.00000063        0.00381632        0.00171081
     261         -1.026226        1.000000        0.00001090        0.00163882        0.00070397
     262         -1.025765        1.000000        0.00000019        0.00164004        0.00079782
     263         -1.025299        1.000000        0.00000012        0.00046022        0.00019679
     264         -1.025158        1.000000        0.00000359        0.02579875        0.01306957
     265         -1.025007        1.000000        0.00006364        0.02312081        0.01165982
     266         -1.024422        1.000000        0.00000217        0.00076815        0.00037831
     267         -1.023793        1.000000        0.00000677        0.00166293        0.00079654
     268         -1.023594        1.000000        0.00000271        0.01724538        0.00898371
     269         -1.023069        1.000000        0.00001763        0.01022043        0.00515308
     270         -1.022603        1.000000        0.00000239        0.00280249        0.00137830
     271         -1.022074        1.000000        0.00001866        0.00065103        0.00026093
     272         -1.021695        1.000000        0.00001922        0.01595093        0.00812157
     273         -1.021372        1.000000        0.00000001        0.00039941        0.00018245
     274         -1.021076        1.000000        0.00000116        0.00175773        0.00090105
     275         -1.019492        1.000000        0.00000039        0.00023958        0.00013005
     276         -1.018003        1.000000        0.00000806        0.00039709        0.00019659
     277         -1.016408        1.000000        0.00000088        0.00008476        0.00004203
     278         -1.016278        1.000000        0.00000094        0.00019898        0.00008719
     279         -1.015338        1.000000        0.00000004        0.00000584        0.00000313
     280         -1.013851        1.000000        0.00000115        0.00003098        0.00001712
     281         -1.010223        1.000000        0.00000004        0.00000123        0.00000049
     282         -1.009666        1.000000        0.00000000        0.00000115        0.00000052
     283         -1.007726        1.000000        0.00000002        0.00000426        0.00000125
     284         -1.007300        1.000000        0.00000074        0.00002546        0.00001191
     285         -1.006916        1.000000        0.00000020        0.00000238        0.00000103
     286         -0.889442        1.000000        0.00000001        0.00000002        0.00000000
     287         -0.869424        1.000000        0.00000000        0.00000001        0.00000000
     288         -0.867225        1.000000        0.00000000        0.00000000        0.00000000
     289         -0.864755        1.000000        0.00000000        0.00000000        0.00000000
     290         -0.860947        1.000000        0.00000000        0.00000000        0.00000000
     291         -0.846899        1.000000        0.00000000        0.00000000        0.00000000
     292         -0.844423        1.000000        0.00000000        0.00000000        0.00000000
     293         -0.843782        1.000000        0.00000000        0.00000000        0.00000000
     294         -0.840445        1.000000        0.00000000        0.00000000        0.00000000
     295         -0.821748        1.000000        0.00000000        0.00000000        0.00000000
     296         -0.818927        1.000000        0.00000000        0.00000000        0.00000000
     297         -0.814033        1.000000        0.00000001        0.00000001        0.00000000
     298         -0.808071        1.000000        0.00000000        0.00000000        0.00000000
     299         -0.807076        1.000000        0.00000000        0.00000000        0.00000000
     300         -0.806003        1.000000        0.00000000        0.00000000        0.00000000
     301         -0.805433        1.000000        0.00000000        0.00000000        0.00000000
     302         -0.803208        1.000000        0.00000000        0.00000000        0.00000000
     303         -0.802271        1.000000        0.00000000        0.00000000        0.00000000
     304         -0.801014        1.000000        0.00000000        0.00000000        0.00000000
     305         -0.800419        1.000000        0.00000000        0.00000000        0.00000000
     306         -0.800163        1.000000        0.00000000        0.00000000        0.00000000
     307         -0.798966        1.000000        0.00000000        0.00000000        0.00000000