# Projected DOS for atomic kind Si at iteration step i = 0, E(Fermi) =    -0.245567 a.u.
#     MO Eigenvalue [a.u.]      Occupation                 s                 p                 d
       1         -3.122063        1.000000        0.00000175        0.00000265        0.00000011
       2         -3.121278        1.000000        0.00000151        0.00000272        0.00000015
       3         -3.121021        1.000000        0.00000033        0.00000066        0.00000005
       4         -3.120578        1.000000        0.00000124        0.00000245        0.00000013
       5         -3.120271        1.000000        0.00000051        0.00000081        0.00000006
       6         -3.119857        1.000000        0.00000033        0.00000125        0.00000005
       7         -3.119652        1.000000        0.00000094        0.00000165        0.00000007
       8         -3.119624        1.000000        0.00000017        0.00000070        0.00000004
       9         -3.119219        1.000000        0.00000028        0.00000067        0.00000004
      10         -3.119023        1.000000        0.00000015        0.00000042        0.00000003
      11         -3.118913        1.000000        0.00000044        0.00000087        0.00000004
      12         -3.118874        1.000000        0.00000009        0.00000033        0.00000002
      13         -3.118317        1.000000        0.00000086        0.00000126        0.00000005
      14         -3.118249        1.000000        0.00000059        0.00000120        0.00000006
      15         -3.117895        1.000000        0.00000037        0.00000074        0.00000005
      16         -3.117383        1.000000        0.00000080        0.00000141        0.00000008
      17         -3.117165        1.000000        0.00000003        0.00000019        0.00000001
      18         -3.116815        1.000000        0.00000117        0.00000188        0.00000006
      19         -3.116436        1.000000        0.00000018        0.00000056        0.00000002
      20         -3.116021        1.000000        0.00000086        0.00000150        0.00000006
      21         -3.115852        1.000000        0.00000019        0.00000061        0.00000003
      22         -3.115668        1.000000        0.00000079        0.00000130        0.00000007
      23         -3.115368        1.000000        0.00000015        0.00000038        0.00000003
      24         -3.115339        1.000000        0.00000008        0.00000051        0.00000002
      25         -3.115041        1.000000        0.00000028        0.00000059        0.00000004
      26         -3.114366        1.000000        0.00000030        0.00000055        0.00000003
      27         -3.113951        1.000000        0.00000008        0.00000039        0.00000002
      28         -3.113764        1.000000        0.00000009        0.00000020        0.00000001
      29         -3.112534        1.000000        0.00000014        0.00000035        0.00000002
      30         -3.111679        1.000000        0.00000029        0.00000059        0.00000002
      31         -1.784233        1.000000        0.00000001        0.00000005        0.00000000
      32         -1.782870        1.000000        0.00000001        0.00000004        0.00000000
      33         -1.782324        1.000000        0.00000000        0.00000003        0.00000000
      34         -1.782130        1.000000        0.00000000        0.00000002        0.00000000
      35         -1.781736        1.000000        0.00000000        0.00000002        0.00000000
      36         -1.781230        1.000000        0.00000000        0.00000002        0.00000000
      37         -1.780847        1.000000        0.00000000        0.00000002        0.00000000
      38         -1.780487        1.000000        0.00000001        0.00000004        0.00000000
      39         -1.780184        1.000000        0.00000001        0.00000003        0.00000000
      40         -1.779550        1.000000        0.00000000        0.00000001        0.00000000
      41         -1.779259        1.000000        0.00000000        0.00000002        0.00000000
      42         -1.778921        1.000000        0.00000001        0.00000005        0.00000000
      43         -1.778390        1.000000        0.00000000        0.00000001        0.00000000
      44         -1.778140        1.000000        0.00000000        0.00000001        0.00000000
      45         -1.777912        1.000000        0.00000000        0.00000001        0.00000000
      46         -1.777514        1.000000        0.00000000        0.00000001        0.00000000
      47         -1.777362        1.000000        0.00000001        0.00000004        0.00000000
      48         -1.776787        1.000000        0.00000000        0.00000003        0.00000000
      49         -1.776537        1.000000        0.00000000        0.00000002        0.00000000
      50         -1.776457        1.000000        0.00000000        0.00000003        0.00000000
      51         -1.776029        1.000000        0.00000000        0.00000001        0.00000000
      52         -1.774038        1.000000        0.00000001        0.00000001        0.00000000
      53         -1.773797        1.000000        0.00000003        0.00000005        0.00000000
      54         -1.773665        1.000000        0.00000000        0.00000001        0.00000000
      55         -1.772725        1.000000        0.00000000        0.00000001        0.00000000
      56         -1.772546        1.000000        0.00000000        0.00000002        0.00000000
      57         -1.772041        1.000000        0.00000000        0.00000001        0.00000000
      58         -1.771662        1.000000        0.00000001        0.00000002        0.00000000
      59         -1.771364        1.000000        0.00000000        0.00000001        0.00000000
      60         -1.770813        1.000000        0.00000001        0.00000004        0.00000000
      61         -1.770640        1.000000        0.00000000        0.00000001        0.00000000
      62         -1.770449        1.000000        0.00000000        0.00000001        0.00000000
      63         -1.770188        1.000000        0.00000001        0.00000005        0.00000000
      64         -1.770126        1.000000        0.00000000        0.00000003        0.00000000
      65         -1.769991        1.000000        0.00000000        0.00000003        0.00000000
      66         -1.769845        1.000000        0.00000000        0.00000002        0.00000000
      67         -1.769763        1.000000        0.00000000        0.00000002        0.00000000
      68         -1.769661        1.000000        0.00000000        0.00000002        0.00000000
      69         -1.769465        1.000000        0.00000000        0.00000002        0.00000000
      70         -1.769351        1.000000        0.00000000        0.00000002        0.00000000
      71         -1.769328        1.000000        0.00000001        0.00000003        0.00000000
      72         -1.769216        1.000000        0.00000000        0.00000003        0.00000000
      73         -1.769129        1.000000        0.00000000        0.00000002        0.00000000
      74         -1.769070        1.000000        0.00000000        0.00000002        0.00000000
      75         -1.768941        1.000000        0.00000000        0.00000003        0.00000000
      76         -1.768822        1.000000        0.00000001        0.00000002        0.00000000
      77         -1.768707        1.000000        0.00000001        0.00000002        0.00000000
      78         -1.768585        1.000000        0.00000000        0.00000001        0.00000000
      79         -1.768439        1.000000        0.00000000        0.00000002        0.00000000
      80         -1.768329        1.000000        0.00000000        0.00000001        0.00000000
      81         -1.768089        1.000000        0.00000000        0.00000002        0.00000000
      82         -1.767883        1.000000        0.00000000        0.00000003        0.00000000
      83         -1.767662        1.000000        0.00000000        0.00000003        0.00000000
      84         -1.767495        1.000000        0.00000000        0.00000002        0.00000000
      85         -1.767311        1.000000        0.00000000        0.00000003        0.00000000
      86         -1.767266        1.000000        0.00000000        0.00000002        0.00000000
      87         -1.767060        1.000000        0.00000001        0.00000004        0.00000000
      88         -1.767025        1.000000        0.00000001        0.00000003        0.00000000
      89         -1.766872        1.000000        0.00000000        0.00000001        0.00000000
      90         -1.766524        1.000000        0.00000000        0.00000004        0.00000000
      91         -1.766405        1.000000        0.00000001        0.00000006        0.00000000
      92         -1.766254        1.000000        0.00000001        0.00000004        0.00000000
      93         -1.766123        1.000000        0.00000000        0.00000001        0.00000000
      94         -1.765857        1.000000        0.00000000        0.00000002        0.00000000
      95         -1.765515        1.000000        0.00000000        0.00000003        0.00000000
      96         -1.765181        1.000000        0.00000000        0.00000001        0.00000000
      97         -1.765105        1.000000        0.00000000        0.00000001        0.00000000
      98         -1.764967        1.000000        0.00000000        0.00000001        0.00000000
      99         -1.764710        1.000000        0.00000000        0.00000001        0.00000000
     100         -1.764440        1.000000        0.00000000        0.00000001        0.00000000
     101         -1.764248        1.000000        0.00000000        0.00000001        0.00000000
     102         -1.763945        1.000000        0.00000000        0.00000002        0.00000000
     103         -1.763804        1.000000        0.00000000        0.00000002        0.00000000
     104         -1.763351        1.000000        0.00000000        0.00000002        0.00000000
     105         -1.763205        1.000000        0.00000000        0.00000001        0.00000000
     106         -1.763107        1.000000        0.00000000        0.00000003        0.00000000
     107         -1.762531        1.000000        0.00000000        0.00000002        0.00000000
     108         -1.762343        1.000000        0.00000000        0.00000002        0.00000000
     109         -1.761453        1.000000        0.00000000        0.00000002        0.00000000
     110         -1.760969        1.000000        0.00000000        0.00000001        0.00000000
     111         -1.760481        1.000000        0.00000000        0.00000001        0.00000000
     112         -1.760009        1.000000        0.00000000        0.00000001        0.00000000
     113         -1.759531        1.000000        0.00000000        0.00000001        0.00000000
     114         -1.759105        1.000000        0.00000000        0.00000000        0.00000000
     115         -1.758777        1.000000        0.00000000        0.00000000        0.00000000
     116         -1.757462        1.000000        0.00000000        0.00000000        0.00000000
     117         -1.756221        1.000000        0.00000000        0.00000000        0.00000000
     118         -1.755333        1.000000        0.00000000        0.00000000        0.00000000
     119         -1.754385        1.000000        0.00000000        0.00000000        0.00000000
     120         -1.752742        1.000000        0.00000000        0.00000000        0.00000000
     121         -1.131181        1.000000        0.28072668        0.07703203        0.02456340
     122         -1.128658        1.000000        0.23179035        0.11085671        0.03440400
     123         -1.128000        1.000000        0.23206764        0.08995440        0.02642780
     124         -1.126427        1.000000        0.21338604        0.10865649        0.03208332
     125         -1.120469        1.000000        0.24828066        0.10138559        0.02994022
     126         -1.119202        1.000000        0.21613683        0.12206578        0.03752247
     127         -1.117081        1.000000        0.21702784        0.11829926        0.03706459
     128         -1.116156        1.000000        0.22235127        0.11668792        0.03707367
     129         -1.115054        1.000000        0.23558735        0.10625933        0.03356206
     130         -1.111818        1.000000        0.20162335        0.12447840        0.03689420
     131         -1.111610        1.000000        0.22470632        0.11473903        0.03597613
     132         -1.110976        1.000000        0.21938549        0.11183496        0.03271905
     133         -1.109888        1.000000        0.21343460        0.11193602        0.03191491
     134         -1.108601        1.000000        0.21175077        0.12944171        0.03657363
     135         -1.108036        1.000000        0.19180386        0.12694485        0.03982377
     136         -1.107349        1.000000        0.21354654        0.12674812        0.03784322
     137         -1.106797        1.000000        0.20457928        0.13275272        0.03804139
     138         -1.106077        1.000000        0.19561718        0.12361976        0.03745986
     139         -1.104162        1.000000        0.18459849        0.11658031        0.03816144
     140         -1.102892        1.000000        0.17741222        0.14734388        0.04259558
     141         -1.102196        1.000000        0.17657398        0.14582128        0.04238199
     142         -1.101581        1.000000        0.17643322        0.14572323        0.04532133
     143         -1.101215        1.000000        0.18141245        0.13864336        0.04568068
     144         -1.099602        1.000000        0.16997219        0.15754136        0.04709846
     145         -1.098107        1.000000        0.16982449        0.14506584        0.04495484
     146         -1.097450        1.000000        0.15440341        0.14152400        0.04713203
     147         -1.097046        1.000000        0.16373418        0.14729003        0.04717520
     148         -1.095795        1.000000        0.16070954        0.14896271        0.04672170
     149         -1.095192        1.000000        0.14308376        0.14678837        0.04773815
     150         -1.093515        1.000000        0.14154970        0.15380077        0.05115199
     151         -1.093123        1.000000        0.13957719        0.14614350        0.04692848
     152         -1.092614        1.000000        0.14660488        0.15716642        0.05173783
     153         -1.091821        1.000000        0.15461096        0.16147125        0.05106941
     154         -1.090761        1.000000        0.13476961        0.15291102        0.05048322
     155         -1.090597        1.000000        0.07749327        0.09723009        0.03090260
     156         -1.089544        1.000000        0.08363038        0.11354521        0.03771653
     157         -1.088154        1.000000        0.11501607        0.13154448        0.04257783
     158         -1.086960        1.000000        0.12376766        0.14363508        0.04868063
     159         -1.086718        1.000000        0.12055263        0.15541851        0.05301587
     160         -1.085525        1.000000        0.09280148        0.16656904        0.05739511
     161         -1.084219        1.000000        0.09179816        0.18059777        0.06323489
     162         -1.082734        1.000000        0.09620200        0.17780714        0.06349454
     163         -1.082381        1.000000        0.08350488        0.14707524        0.05023156
     164         -1.080807        1.000000        0.08725449        0.17283099        0.06312196
     165         -1.080293        1.000000        0.08551550        0.16850699        0.05502098
     166         -1.079453        1.000000        0.07459970        0.17928338        0.06290744
     167         -1.078246        1.000000        0.07794668        0.19928154        0.07542662
     168         -1.077774        1.000000        0.07057309        0.17947174        0.06365821
     169         -1.077143        1.000000        0.07478436        0.19544193        0.06990772
     170         -1.076426        1.000000        0.07599972        0.21407816        0.07819759
     171         -1.076145        1.000000        0.06818769        0.19258323        0.06984201
     172         -1.074526        1.000000        0.06264205        0.17137799        0.06186853
     173         -1.074368        1.000000        0.06989886        0.18770697        0.06880203
     174         -1.073652        1.000000        0.05981313        0.15948753        0.05849051
     175         -1.072808        1.000000        0.07597759        0.20581355        0.07154733
     176         -1.072152        1.000000        0.07605943        0.20707294        0.07860331
     177         -1.071192        1.000000        0.07000486        0.20686190        0.07709269
     178         -1.070444        1.000000        0.05635692        0.17129364        0.06387805
     179         -1.070141        1.000000        0.04545044        0.16391110        0.06285370
     180         -1.069416        1.000000        0.06501602        0.20618112        0.07741156
     181         -1.069179        1.000000        0.04583712        0.21984726        0.08338692
     182         -1.067610        1.000000        0.05626567        0.19623444        0.07497681
     183         -1.066240        1.000000        0.05168293        0.21062116        0.07751961
     184         -1.065124        1.000000        0.06041151        0.21195203        0.08117872
     185         -1.064565        1.000000        0.05327631        0.20292999        0.07997576
     186         -1.063575        1.000000        0.04361345        0.20002960        0.07867022
     187         -1.062901        1.000000        0.04404096        0.16495344        0.06421945
     188         -1.062274        1.000000        0.04022129        0.17918734        0.07081642
     189         -1.061481        1.000000        0.03964166        0.20970101        0.08180805
     190         -1.061312        1.000000        0.04811958        0.21265271        0.08314365
     191         -1.060592        1.000000        0.03448689        0.21483958        0.08712193
     192         -1.059297        1.000000        0.03250697        0.23792623        0.09235796
     193         -1.058643        1.000000        0.03672736        0.20866154        0.08626653
     194         -1.058262        1.000000        0.03443948        0.18402546        0.07108701
     195         -1.057127        1.000000        0.02847565        0.17186755        0.06795531
     196         -1.056224        1.000000        0.01413890        0.16548316        0.06646874
     197         -1.056050        1.000000        0.01878237        0.17265485        0.07161030
     198         -1.054881        1.000000        0.01487881        0.17865885        0.07340934
     199         -1.054669        1.000000        0.02794733        0.23624691        0.09677129
     200         -1.053605        1.000000        0.01628667        0.24906777        0.09302222
     201         -1.053457        1.000000        0.01777265        0.23200600        0.08827427
     202         -1.052589        1.000000        0.03093804        0.24512376        0.09919908
     203         -1.052089        1.000000        0.01997521        0.21690216        0.08705633
     204         -1.051299        1.000000        0.02373027        0.23177051        0.09524237
     205         -1.050676        1.000000        0.02261065        0.22682145        0.09228057
     206         -1.050307        1.000000        0.01239414        0.24360686        0.09936408
     207         -1.049921        1.000000        0.01136473        0.21294382        0.08645717
     208         -1.049485        1.000000        0.01815217        0.24800678        0.10406376
     209         -1.049126        1.000000        0.01250960        0.25276097        0.10073656
     210         -1.048445        1.000000        0.01273986        0.23542146        0.09788354
     211         -1.048201        1.000000        0.01650438        0.24605938        0.10398238
     212         -1.047911        1.000000        0.01512680        0.22469801        0.09429298
     213         -1.047620        1.000000        0.01428452        0.25268690        0.10839150
     214         -1.046931        1.000000        0.00966626        0.24814011        0.10080742
     215         -1.046733        1.000000        0.01222111        0.24378825        0.10715457
     216         -1.046634        1.000000        0.01202246        0.22144170        0.08962210
     217         -1.045930        1.000000        0.01076467        0.25738700        0.11018508
     218         -1.045069        1.000000        0.00820783        0.24920492        0.10825973
     219         -1.044350        1.000000        0.00780558        0.26199583        0.11836875
     220         -1.043623        1.000000        0.00818308        0.23590641        0.09711598
     221         -1.043421        1.000000        0.00362301        0.17181522        0.07201214
     222         -1.042778        1.000000        0.00763830        0.26129240        0.11114894
     223         -1.042701        1.000000        0.00768090        0.23582789        0.10295955
     224         -1.042424        1.000000        0.00954162        0.23803529        0.10464429
     225         -1.041682        1.000000        0.00880197        0.23557479        0.10060170
     226         -1.041498        1.000000        0.01221753        0.22332211        0.09555274
     227         -1.040837        1.000000        0.00576697        0.22876041        0.09957206
     228         -1.040496        1.000000        0.00695779        0.24522714        0.10811014
     229         -1.040151        1.000000        0.00726971        0.23690479        0.10665713
     230         -1.039686        1.000000        0.00731756        0.24569004        0.10778569
     231         -1.038961        1.000000        0.00539400        0.23046493        0.10180972
     232         -1.038553        1.000000        0.00646008        0.24690325        0.10426296
     233         -1.038476        1.000000        0.00524832        0.21305038        0.09209080
     234         -1.038152        1.000000        0.00706479        0.27057634        0.11876931
     235         -1.038041        1.000000        0.00665604        0.26453913        0.11716645
     236         -1.036855        1.000000        0.00579581        0.25420250        0.10868702
     237         -1.036488        1.000000        0.00559525        0.25618237        0.11252671
     238         -1.036186        1.000000        0.00577394        0.26780944        0.11474204
     239         -1.036068        1.000000        0.00608249        0.25879765        0.11604005
     240         -1.035757        1.000000        0.00496429        0.25605742        0.10973561
     241         -1.035291        1.000000        0.00397583        0.25762317        0.10971900
     242         -1.035048        1.000000        0.00626592        0.26329915        0.11572923
     243         -1.035000        1.000000        0.00738826        0.26028344        0.11318087
     244         -1.034454        1.000000        0.00397402        0.26906822        0.11689830
     245         -1.034219        1.000000        0.00537293        0.26067330        0.11219580
     246         -1.033874        1.000000        0.00503564        0.24961983        0.10897342
     247         -1.033507        1.000000        0.00588889        0.26153225        0.11241242
     248         -1.033219        1.000000        0.00515225        0.26217631        0.11333435
     249         -1.033056        1.000000        0.00523323        0.25599359        0.11010348
     250         -1.032307        1.000000        0.00424220        0.26469149        0.11572858
     251         -1.031324        1.000000        0.00500856        0.24068202        0.10457143
     252         -1.031144        1.000000        0.00529166        0.25118699        0.10806005
     253         -1.030643        1.000000        0.00738319        0.24916433        0.10982400
     254         -1.030284        1.000000        0.00485919        0.25829762        0.11317741
     255         -1.030062        1.000000        0.00446614        0.25743973        0.11334893
     256         -1.029818        1.000000        0.00683473        0.26098793        0.11702802
     257         -1.028552        1.000000        0.00372535        0.27361520        0.11995742
     258         -1.027578        1.000000        0.00192155        0.25421794        0.12376746
     259         -1.027121        1.000000        0.00223523        0.27274997        0.12676052
     260         -1.026880        1.000000        0.00433509        0.24474282        0.11279088
     261         -1.026226        1.000000        0.00286436        0.26969392        0.12193081
     262         -1.025765        1.000000        0.00346456        0.26859111        0.11880256
     263         -1.025299        1.000000        0.00237741        0.24903142        0.11099371
     264         -1.025158        1.000000        0.00428047        0.24030636        0.10725545
     265         -1.025007        1.000000        0.00425509        0.24045578        0.10457069
     266         -1.024422        1.000000        0.00597188        0.25486345        0.11611493
     267         -1.023793        1.000000        0.00414095        0.26881436        0.11945945
     268         -1.023594        1.000000        0.00163700        0.10551256        0.05029917
     269         -1.023069        1.000000        0.00480820        0.23258742        0.10708206
     270         -1.022603        1.000000        0.00476968        0.25077041        0.11598166
     271         -1.022074        1.000000        0.00736116        0.25273504        0.11428186
     272         -1.021695        1.000000        0.00713372        0.26137399        0.11444482
     273         -1.021372        1.000000        0.00169028        0.26417145        0.12435477
     274         -1.021076        1.000000        0.00262738        0.22454915        0.10327566
     275         -1.019492        1.000000        0.00787381        0.26042139        0.11449404
     276         -1.018003        1.000000        0.00379533        0.27012424        0.12561451
     277         -1.016408        1.000000        0.00418891        0.23128399        0.10715768
     278         -1.016278        1.000000        0.00360777        0.26176462        0.12810012
     279         -1.015338        1.000000        0.00542395        0.26582088        0.12402339
     280         -1.013851        1.000000        0.00854705        0.26940071        0.11797364
     281         -1.010223        1.000000        0.00625992        0.26312230        0.11644371
     282         -1.009666        1.000000        0.01126271        0.26302331        0.11693853
     283         -1.007726        1.000000        0.00562160        0.15521820        0.06608647
     284         -1.007300        1.000000        0.01030262        0.25471286        0.11103691
     285         -1.006916        1.000000        0.01115285        0.26019831        0.11905563
     286         -0.889442        1.000000        0.00001578        0.00001526        0.00000084
     287         -0.869424        1.000000        0.00000308        0.00000666        0.00000048
     288         -0.867225        1.000000        0.00000384        0.00000683        0.00000054
     289         -0.864755        1.000000        0.00000309        0.00000644        0.00000056
     290         -0.860947        1.000000        0.00000181        0.00000391        0.00000047
     291         -0.846899        1.000000        0.00000136        0.00000381        0.00000046
     292         -0.844423        1.000000        0.00000056        0.00000163        0.00000026
     293         -0.843782        1.000000        0.00000148        0.00000348        0.00000049
     294         -0.840445        1.000000        0.00000121        0.00000204        0.00000024
     295         -0.821748        1.000000        0.00000088        0.00000146        0.00000036
     296         -0.818927        1.000000        0.00000083        0.00000166        0.00000039
     297         -0.814033        1.000000        0.00001603        0.00001483        0.00000090
     298         -0.808071        1.000000        0.00000177        0.00000284        0.00000040
     299         -0.807076        1.000000        0.00000173        0.00000268        0.00000039
     300         -0.806003        1.000000        0.00000131        0.00000214        0.00000035
     301         -0.805433        1.000000        0.00000315        0.00000533        0.00000077
     302         -0.803208        1.000000        0.00000153        0.00000272        0.00000039
     303         -0.802271        1.000000        0.00000208        0.00000386        0.00000052
     304         -0.801014        1.000000        0.00000112        0.00000167        0.00000028
     305         -0.800419        1.000000        0.00000130        0.00000240        0.00000036
     306         -0.800163        1.000000        0.00000101        0.00000214        0.00000031
     307         -0.798966        1.000000        0.00000032        0.00000101        0.00000022