# Projected DOS for list 316 of 1 atoms, at iteration step i = 0, E(Fermi) =    -0.245567 a.u.
#     MO Eigenvalue [a.u.]      Occupation                 s                 p                 d                 f
       1         -3.122063        1.000000        0.00000829        0.00000059        0.00001228        0.00000115
       2         -3.121278        1.000000        0.00371825        0.00069607        0.00491669        0.00025917
       3         -3.121021        1.000000        0.00052685        0.00008932        0.00057726        0.00002535
       4         -3.120578        1.000000        0.00055375        0.00009278        0.00071745        0.00005542
       5         -3.120271        1.000000        0.00003674        0.00000667        0.00011051        0.00001031
       6         -3.119857        1.000000        0.00059055        0.00001196        0.00061090        0.00000309
       7         -3.119652        1.000000        0.01972924        0.00083073        0.00630630        0.00029119
       8         -3.119624        1.000000        0.00167610        0.00034513        0.00164882        0.00007202
       9         -3.119219        1.000000        0.00000429        0.00001010        0.00002304        0.00000043
      10         -3.119023        1.000000        0.00359154        0.00035914        0.00259125        0.00011781
      11         -3.118913        1.000000        0.00422244        0.00029598        0.00323630        0.00017537
      12         -3.118874        1.000000        0.00041574        0.00003382        0.00036374        0.00002264
      13         -3.118317        1.000000        0.00275683        0.00004033        0.00032858        0.00000185
      14         -3.118249        1.000000        0.03240193        0.00029207        0.00271753        0.00002291
      15         -3.117895        1.000000        0.48951016        0.00040584        0.00565677        0.00002509
      16         -3.117383        1.000000        0.00000018        0.00000411        0.00002658        0.00000026
      17         -3.117165        1.000000        0.24737930        0.00171090        0.00463802        0.00024656
      18         -3.116815        1.000000        0.02462130        0.00024322        0.00569024        0.00009408
      19         -3.116436        1.000000        0.03334046        0.00047430        0.00699256        0.00015039
      20         -3.116021        1.000000        0.00265667        0.00003101        0.00070636        0.00001794
      21         -3.115852        1.000000        0.00137353        0.00002013        0.00046360        0.00000781
      22         -3.115668        1.000000        0.00014403        0.00002728        0.00063731        0.00002288
      23         -3.115368        1.000000        0.00016207        0.00000672        0.00006078        0.00000362
      24         -3.115339        1.000000        0.00000854        0.00000741        0.00000357        0.00000025
      25         -3.115041        1.000000        0.00016367        0.00000187        0.00006550        0.00000694
      26         -3.114366        1.000000        0.00014634        0.00004391        0.00011334        0.00000082
      27         -3.113951        1.000000        0.00002469        0.00003314        0.00016176        0.00000403
      28         -3.113764        1.000000        0.00000667        0.00001430        0.00004054        0.00000070
      29         -3.112534        1.000000        0.00263957        0.00067770        0.00717849        0.00035956
      30         -3.111679        1.000000        0.00003069        0.00006144        0.00005734        0.00000036
      31         -1.784233        1.000000        0.00000157        0.00998271        0.00006951        0.00001688
      32         -1.782870        1.000000        0.00000071        0.00038069        0.00010409        0.00000158
      33         -1.782324        1.000000        0.00000739        0.00163039        0.00015263        0.00000243
      34         -1.782130        1.000000        0.00000043        0.00911506        0.00001901        0.00000404
      35         -1.781736        1.000000        0.00003331        0.02101487        0.00003925        0.00001823
      36         -1.781230        1.000000        0.00001453        0.00461382        0.00096054        0.00000563
      37         -1.780847        1.000000        0.00006404        0.01183131        0.00010246        0.00001670
      38         -1.780487        1.000000        0.00000097        0.03185772        0.00002583        0.00006734
      39         -1.780184        1.000000        0.00000554        0.02507020        0.00020913        0.00011273
      40         -1.779550        1.000000        0.00044628        0.01775178        0.00033002        0.00001689
      41         -1.779259        1.000000        0.00000018        0.01290826        0.00003200        0.00001379
      42         -1.778921        1.000000        0.00042758        0.04853987        0.00091703        0.00004893
      43         -1.778390        1.000000        0.00004420        0.02321655        0.00036866        0.00001941
      44         -1.778140        1.000000        0.00010184        0.08887674        0.00101592        0.00002772
      45         -1.777912        1.000000        0.00000242        0.06578261        0.00072150        0.00004718
      46         -1.777514        1.000000        0.00000342        0.03955091        0.00026083        0.00000439
      47         -1.777362        1.000000        0.00045555        0.01060523        0.00052429        0.00001013
      48         -1.776787        1.000000        0.00025157        0.07547683        0.00022089        0.00002913
      49         -1.776537        1.000000        0.00047833        0.02961064        0.00047198        0.00004273
      50         -1.776457        1.000000        0.00000398        0.04331856        0.00075636        0.00001179
      51         -1.776029        1.000000        0.00045819        0.06658620        0.00036120        0.00001405
      52         -1.774038        1.000000        0.00000094        0.00733071        0.00123237        0.00000541
      53         -1.773797        1.000000        0.00000322        0.00593833        0.00022040        0.00000594
      54         -1.773665        1.000000        0.00005639        0.02603076        0.00025814        0.00001134
      55         -1.772725        1.000000        0.00000438        0.00764415        0.00007644        0.00001380
      56         -1.772546        1.000000        0.00000440        0.01233698        0.00019392        0.00001977
      57         -1.772041        1.000000        0.00000243        0.00111649        0.00002744        0.00000130
      58         -1.771662        1.000000        0.00000136        0.05758913        0.00002398        0.00003542
      59         -1.771364        1.000000        0.00000134        0.03701371        0.00005556        0.00001691
      60         -1.770813        1.000000        0.00002395        0.02075534        0.00036431        0.00000429
      61         -1.770640        1.000000        0.00002538        0.04855404        0.00003406        0.00000914
      62         -1.770449        1.000000        0.00000051        0.00871570        0.00025661        0.00000784
      63         -1.770188        1.000000        0.00059705        0.02364228        0.00064162        0.00001258
      64         -1.770126        1.000000        0.00017665        0.02243326        0.00026073        0.00000390
      65         -1.769991        1.000000        0.00000038        0.02612242        0.00002031        0.00000432
      66         -1.769845        1.000000        0.00006701        0.08280920        0.00016547        0.00000651
      67         -1.769763        1.000000        0.00000314        0.05694008        0.00018921        0.00002042
      68         -1.769661        1.000000        0.00007661        0.00993937        0.00033353        0.00001175
      69         -1.769465        1.000000        0.00005351        0.05375377        0.00031421        0.00001099
      70         -1.769351        1.000000        0.00000600        0.06770954        0.00006036        0.00001112
      71         -1.769328        1.000000        0.00003680        0.03014118        0.00014309        0.00003058
      72         -1.769216        1.000000        0.00000036        0.04170810        0.00004082        0.00001097
      73         -1.769129        1.000000        0.00002253        0.06553622        0.00005591        0.00001179
      74         -1.769070        1.000000        0.00001205        0.04700447        0.00013475        0.00000517
      75         -1.768941        1.000000        0.00000979        0.01226940        0.00015497        0.00000505
      76         -1.768822        1.000000        0.00000083        0.04704214        0.00023503        0.00001621
      77         -1.768707        1.000000        0.00002112        0.03177422        0.00008046        0.00001452
      78         -1.768585        1.000000        0.00000367        0.04559990        0.00019604        0.00000848
      79         -1.768439        1.000000        0.00004316        0.02279111        0.00057822        0.00000255
      80         -1.768329        1.000000        0.00000657        0.13092359        0.00038664        0.00001048
      81         -1.768089        1.000000        0.00001964        0.04642417        0.00004977        0.00000628
      82         -1.767883        1.000000        0.00000302        0.11424641        0.00003317        0.00002710
      83         -1.767662        1.000000        0.00001901        0.01611693        0.00018632        0.00001056
      84         -1.767495        1.000000        0.00011236        0.06514430        0.00023344        0.00003177
      85         -1.767311        1.000000        0.00012759        0.04975306        0.00013257        0.00002976
      86         -1.767266        1.000000        0.00004357        0.03685575        0.00020311        0.00000448
      87         -1.767060        1.000000        0.00003043        0.00254345        0.00013277        0.00000201
      88         -1.767025        1.000000        0.00000281        0.03015521        0.00018838        0.00001502
      89         -1.766872        1.000000        0.00000671        0.00744380        0.00018175        0.00000873
      90         -1.766524        1.000000        0.00000473        0.01005240        0.00050175        0.00000710
      91         -1.766405        1.000000        0.00000399        0.00993816        0.00005651        0.00000258
      92         -1.766254        1.000000        0.00000825        0.00957973        0.00012828        0.00001121
      93         -1.766123        1.000000        0.00001520        0.02193276        0.00032877        0.00001791
      94         -1.765857        1.000000        0.00002978        0.00687407        0.00010925        0.00000952
      95         -1.765515        1.000000        0.00003590        0.05623360        0.00013954        0.00001711
      96         -1.765181        1.000000        0.00000912        0.00623832        0.00009897        0.00001128
      97         -1.765105        1.000000        0.00001043        0.05119345        0.00033342        0.00001125
      98         -1.764967        1.000000        0.00007339        0.09202148        0.00021569        0.00002080
      99         -1.764710        1.000000        0.00002523        0.04679278        0.00026892        0.00000570
     100         -1.764440        1.000000        0.00000989        0.01972127        0.00034859        0.00000638
     101         -1.764248        1.000000        0.00003625        0.00516994        0.00005863        0.00000776
     102         -1.763945        1.000000        0.00003804        0.01109478        0.00004919        0.00000505
     103         -1.763804        1.000000        0.00000674        0.00483660        0.00018823        0.00000351
     104         -1.763351        1.000000        0.00001110        0.01705182        0.00034714        0.00000124
     105         -1.763205        1.000000        0.00000515        0.05661531        0.00019384        0.00001930
     106         -1.763107        1.000000        0.00000131        0.00108929        0.00004583        0.00002110
     107         -1.762531        1.000000        0.00000711        0.03304519        0.00011359        0.00000981
     108         -1.762343        1.000000        0.00008610        0.04551055        0.00013371        0.00001729
     109         -1.761453        1.000000        0.00038236        0.01934924        0.00059226        0.00000829
     110         -1.760969        1.000000        0.00011264        0.01263763        0.00019636        0.00000635
     111         -1.760481        1.000000        0.00013518        0.04218861        0.00026360        0.00001538
     112         -1.760009        1.000000        0.00014400        0.04311256        0.00035305        0.00000340
     113         -1.759531        1.000000        0.00001176        0.00159234        0.00010173        0.00001324
     114         -1.759105        1.000000        0.00033272        0.09409897        0.00155802        0.00007298
     115         -1.758777        1.000000        0.00000468        0.00077585        0.00001102        0.00000193
     116         -1.757462        1.000000        0.00000084        0.00004338        0.00000354        0.00000057
     117         -1.756221        1.000000        0.00000040        0.02605226        0.00000839        0.00005027
     118         -1.755333        1.000000        0.00000092        0.00020437        0.00001636        0.00000032
     119         -1.754385        1.000000        0.00000095        0.03093443        0.00003322        0.00006531
     120         -1.752742        1.000000        0.00000146        0.06239259        0.00000734        0.00010570
     121         -1.131181        1.000000        0.00000008        0.00000005        0.00000008        0.00000001
     122         -1.128658        1.000000        0.00000002        0.00000002        0.00000005        0.00000000
     123         -1.128000        1.000000        0.00000006        0.00000005        0.00000007        0.00000001
     124         -1.126427        1.000000        0.00000000        0.00000000        0.00000000        0.00000000
     125         -1.120469        1.000000        0.00000008        0.00000005        0.00000008        0.00000001
     126         -1.119202        1.000000        0.00000019        0.00000014        0.00000024        0.00000002
     127         -1.117081        1.000000        0.00000017        0.00000011        0.00000018        0.00000002
     128         -1.116156        1.000000        0.00000004        0.00000003        0.00000010        0.00000001
     129         -1.115054        1.000000        0.00000000        0.00000002        0.00000007        0.00000001
     130         -1.111818        1.000000        0.00000024        0.00000018        0.00000031        0.00000003
     131         -1.111610        1.000000        0.00000001        0.00000001        0.00000001        0.00000000
     132         -1.110976        1.000000        0.00000011        0.00000008        0.00000012        0.00000001
     133         -1.109888        1.000000        0.00000001        0.00000003        0.00000009        0.00000001
     134         -1.108601        1.000000        0.00000001        0.00000000        0.00000002        0.00000000
     135         -1.108036        1.000000        0.00000003        0.00000004        0.00000011        0.00000001
     136         -1.107349        1.000000        0.00000002        0.00000001        0.00000004        0.00000000
     137         -1.106797        1.000000        0.00000002        0.00000001        0.00000002        0.00000000
     138         -1.106077        1.000000        0.00000011        0.00000007        0.00000011        0.00000001
     139         -1.104162        1.000000        0.00000020        0.00000015        0.00000025        0.00000003
     140         -1.102892        1.000000        0.00000000        0.00000000        0.00000003        0.00000000
     141         -1.102196        1.000000        0.00000001        0.00000006        0.00000024        0.00000001
     142         -1.101581        1.000000        0.00000001        0.00000002        0.00000007        0.00000000
     143         -1.101215        1.000000        0.00000006        0.00000003        0.00000007        0.00000001
     144         -1.099602        1.000000        0.00000000        0.00000000        0.00000001        0.00000000
     145         -1.098107        1.000000        0.00000004        0.00000004        0.00000011        0.00000001
     146         -1.097450        1.000000        0.00000027        0.00000027        0.00000051        0.00000006
     147         -1.097046        1.000000        0.00000004        0.00000003        0.00000025        0.00000003
     148         -1.095795        1.000000        0.00000002        0.00000003        0.00000006        0.00000000
     149         -1.095192        1.000000        0.00000010        0.00000006        0.00000035        0.00000006
     150         -1.093515        1.000000        0.00000007        0.00000009        0.00000021        0.00000002
     151         -1.093123        1.000000        0.00000025        0.00000017        0.00000021        0.00000002
     152         -1.092614        1.000000        0.00000018        0.00000013        0.00000019        0.00000003
     153         -1.091821        1.000000        0.00000007        0.00000009        0.00000018        0.00000001
     154         -1.090761        1.000000        0.00000010        0.00000011        0.00000018        0.00000001
     155         -1.090597        1.000000        0.00000002        0.00000004        0.00000010        0.00000001
     156         -1.089544        1.000000        0.00000005        0.00000004        0.00000005        0.00000000
     157         -1.088154        1.000000        0.00000013        0.00000010        0.00000057        0.00000005
     158         -1.086960        1.000000        0.00000007        0.00000004        0.00000022        0.00000003
     159         -1.086718        1.000000        0.00000003        0.00000002        0.00000003        0.00000001
     160         -1.085525        1.000000        0.00000036        0.00000029        0.00000043        0.00000010
     161         -1.084219        1.000000        0.00000000        0.00000000        0.00000004        0.00000001
     162         -1.082734        1.000000        0.00000000        0.00000002        0.00000015        0.00000001
     163         -1.082381        1.000000        0.00000007        0.00000006        0.00000012        0.00000002
     164         -1.080807        1.000000        0.00000000        0.00000000        0.00000005        0.00000001
     165         -1.080293        1.000000        0.00000012        0.00000010        0.00000023        0.00000005
     166         -1.079453        1.000000        0.00000001        0.00000000        0.00000007        0.00000001
     167         -1.078246        1.000000        0.00000001        0.00000002        0.00000031        0.00000004
     168         -1.077774        1.000000        0.00000002        0.00000002        0.00000008        0.00000001
     169         -1.077143        1.000000        0.00000000        0.00000001        0.00000003        0.00000000
     170         -1.076426        1.000000        0.00000001        0.00000002        0.00000002        0.00000000
     171         -1.076145        1.000000        0.00000000        0.00000000        0.00000002        0.00000001
     172         -1.074526        1.000000        0.00000003        0.00000004        0.00000009        0.00000002
     173         -1.074368        1.000000        0.00000010        0.00000006        0.00000078        0.00000016
     174         -1.073652        1.000000        0.00000004        0.00000004        0.00000007        0.00000003
     175         -1.072808        1.000000        0.00000004        0.00000005        0.00000055        0.00000009
     176         -1.072152        1.000000        0.00000001        0.00000001        0.00000006        0.00000001
     177         -1.071192        1.000000        0.00000012        0.00000010        0.00000025        0.00000008
     178         -1.070444        1.000000        0.00000092        0.00000073        0.00000605        0.00000135
     179         -1.070141        1.000000        0.00000012        0.00000011        0.00000118        0.00000023
     180         -1.069416        1.000000        0.00000015        0.00000015        0.00000130        0.00000032
     181         -1.069179        1.000000        0.00000013        0.00000016        0.00000113        0.00000031
     182         -1.067610        1.000000        0.00000015        0.00000021        0.00000298        0.00000064
     183         -1.066240        1.000000        0.00000003        0.00000004        0.00000114        0.00000018
     184         -1.065124        1.000000        0.00000004        0.00000005        0.00000045        0.00000014
     185         -1.064565        1.000000        0.00000004        0.00000003        0.00000005        0.00000003
     186         -1.063575        1.000000        0.00000016        0.00000020        0.00000136        0.00000045
     187         -1.062901        1.000000        0.00000033        0.00000068        0.00001166        0.00000236
     188         -1.062274        1.000000        0.00000029        0.00000052        0.00000899        0.00000188
     189         -1.061481        1.000000        0.00000016        0.00000032        0.00000591        0.00000120
     190         -1.061312        1.000000        0.00000005        0.00000010        0.00000188        0.00000038
     191         -1.060592        1.000000        0.00000005        0.00000010        0.00000223        0.00000045
     192         -1.059297        1.000000        0.00000001        0.00000001        0.00000008        0.00000003
     193         -1.058643        1.000000        0.00000007        0.00000014        0.00000278        0.00000058
     194         -1.058262        1.000000        0.00000022        0.00000032        0.00000648        0.00000149
     195         -1.057127        1.000000        0.00000007        0.00000018        0.00000279        0.00000064
     196         -1.056224        1.000000        0.00000001        0.00000001        0.00000003        0.00000002
     197         -1.056050        1.000000        0.00000002        0.00000003        0.00000087        0.00000019
     198         -1.054881        1.000000        0.00000000        0.00000002        0.00000020        0.00000004
     199         -1.054669        1.000000        0.00000001        0.00000003        0.00000056        0.00000012
     200         -1.053605        1.000000        0.00000001        0.00000002        0.00000031        0.00000009
     201         -1.053457        1.000000        0.00000000        0.00000000        0.00000000        0.00000000
     202         -1.052589        1.000000        0.00000000        0.00000000        0.00000006        0.00000001
     203         -1.052089        1.000000        0.00000000        0.00000001        0.00000009        0.00000002
     204         -1.051299        1.000000        0.00000002        0.00000004        0.00000069        0.00000018
     205         -1.050676        1.000000        0.00000000        0.00000000        0.00000004        0.00000001
     206         -1.050307        1.000000        0.00000000        0.00000001        0.00000026        0.00000005
     207         -1.049921        1.000000        0.00000001        0.00000005        0.00000093        0.00000023
     208         -1.049485        1.000000        0.00000001        0.00000002        0.00000026        0.00000007
     209         -1.049126        1.000000        0.00000000        0.00000000        0.00000006        0.00000002
     210         -1.048445        1.000000        0.00000001        0.00000005        0.00000122        0.00000033
     211         -1.048201        1.000000        0.00000002        0.00000007        0.00000179        0.00000045
     212         -1.047911        1.000000        0.00000000        0.00000001        0.00000006        0.00000002
     213         -1.047620        1.000000        0.00000000        0.00000002        0.00000033        0.00000006
     214         -1.046931        1.000000        0.00000000        0.00000000        0.00000001        0.00000000
     215         -1.046733        1.000000        0.00000000        0.00000001        0.00000010        0.00000003
     216         -1.046634        1.000000        0.00000000        0.00000001        0.00000013        0.00000003
     217         -1.045930        1.000000        0.00000000        0.00000000        0.00000010        0.00000003
     218         -1.045069        1.000000        0.00000000        0.00000001        0.00000007        0.00000003
     219         -1.044350        1.000000        0.00000000        0.00000001        0.00000002        0.00000000
     220         -1.043623        1.000000        0.00000002        0.00000001        0.00000047        0.00000012
     221         -1.043421        1.000000        0.00000001        0.00000002        0.00000058        0.00000020
     222         -1.042778        1.000000        0.00000000        0.00000000        0.00000001        0.00000000
     223         -1.042701        1.000000        0.00000000        0.00000000        0.00000001        0.00000000
     224         -1.042424        1.000000        0.00000000        0.00000001        0.00000010        0.00000004
     225         -1.041682        1.000000        0.00000001        0.00000003        0.00000062        0.00000023
     226         -1.041498        1.000000        0.00000000        0.00000001        0.00000002        0.00000001
     227         -1.040837        1.000000        0.00000002        0.00000003        0.00000080        0.00000030
     228         -1.040496        1.000000        0.00000000        0.00000000        0.00000001        0.00000001
     229         -1.040151        1.000000        0.00000000        0.00000000        0.00000000        0.00000000
     230         -1.039686        1.000000        0.00000000        0.00000000        0.00000001        0.00000001
     231         -1.038961        1.000000        0.00000000        0.00000000        0.00000002        0.00000001
     232         -1.038553        1.000000        0.00000000        0.00000000        0.00000001        0.00000000
     233         -1.038476        1.000000        0.00000000        0.00000000        0.00000001        0.00000001
     234         -1.038152        1.000000        0.00000000        0.00000000        0.00000001        0.00000000
     235         -1.038041        1.000000        0.00000000        0.00000000        0.00000001        0.00000000
     236         -1.036855        1.000000        0.00000000        0.00000000        0.00000000        0.00000000
     237         -1.036488        1.000000        0.00000000        0.00000000        0.00000001        0.00000000
     238         -1.036186        1.000000        0.00000000        0.00000000        0.00000000        0.00000000
     239         -1.036068        1.000000        0.00000000        0.00000000        0.00000001        0.00000000
     240         -1.035757        1.000000        0.00000000        0.00000000        0.00000002        0.00000001
     241         -1.035291        1.000000        0.00000000        0.00000001        0.00000002        0.00000001
     242         -1.035048        1.000000        0.00000000        0.00000000        0.00000001        0.00000000
     243         -1.035000        1.000000        0.00000000        0.00000000        0.00000005        0.00000000
     244         -1.034454        1.000000        0.00000000        0.00000000        0.00000001        0.00000000
     245         -1.034219        1.000000        0.00000001        0.00000001        0.00000002        0.00000000
     246         -1.033874        1.000000        0.00000000        0.00000000        0.00000001        0.00000000
     247         -1.033507        1.000000        0.00000000        0.00000000        0.00000000        0.00000000
     248         -1.033219        1.000000        0.00000001        0.00000001        0.00000006        0.00000001
     249         -1.033056        1.000000        0.00000000        0.00000000        0.00000001        0.00000000
     250         -1.032307        1.000000        0.00000000        0.00000000        0.00000001        0.00000000
     251         -1.031324        1.000000        0.00000001        0.00000003        0.00000006        0.00000002
     252         -1.031144        1.000000        0.00000001        0.00000001        0.00000002        0.00000001
     253         -1.030643        1.000000        0.00000000        0.00000000        0.00000001        0.00000000
     254         -1.030284        1.000000        0.00000000        0.00000000        0.00000000        0.00000000
     255         -1.030062        1.000000        0.00000000        0.00000000        0.00000000        0.00000000
     256         -1.029818        1.000000        0.00000000        0.00000000        0.00000000        0.00000000
     257         -1.028552        1.000000        0.00000000        0.00000000        0.00000000        0.00000000
     258         -1.027578        1.000000        0.00000001        0.00000000        0.00000001        0.00000000
     259         -1.027121        1.000000        0.00000001        0.00000000        0.00000000        0.00000000