# Projected DOS for list 257 of 1 atoms, at iteration step i = 0, E(Fermi) =    -0.245567 a.u.
#     MO Eigenvalue [a.u.]      Occupation                 s                 p                 d
       1         -3.122063        1.000000        0.00000001        0.00000000        0.00000000
       2         -3.121278        1.000000        0.00000000        0.00000000        0.00000000
       3         -3.121021        1.000000        0.00000000        0.00000000        0.00000000
       4         -3.120578        1.000000        0.00000001        0.00000000        0.00000000
       5         -3.120271        1.000000        0.00000003        0.00000002        0.00000000
       6         -3.119857        1.000000        0.00000000        0.00000000        0.00000000
       7         -3.119652        1.000000        0.00000003        0.00000001        0.00000000
       8         -3.119624        1.000000        0.00000000        0.00000000        0.00000000
       9         -3.119219        1.000000        0.00000002        0.00000001        0.00000000
      10         -3.119023        1.000000        0.00000000        0.00000001        0.00000000
      11         -3.118913        1.000000        0.00000001        0.00000000        0.00000000
      12         -3.118874        1.000000        0.00000000        0.00000000        0.00000000
      13         -3.118317        1.000000        0.00000012        0.00000009        0.00000004
      14         -3.118249        1.000000        0.00000000        0.00000002        0.00000000
      15         -3.117895        1.000000        0.00000001        0.00000001        0.00000000
      16         -3.117383        1.000000        0.00000002        0.00000000        0.00000000
      17         -3.117165        1.000000        0.00000000        0.00000005        0.00000001
      18         -3.116815        1.000000        0.00000009        0.00000004        0.00000004
      19         -3.116436        1.000000        0.00000001        0.00000003        0.00000001
      20         -3.116021        1.000000        0.00000001        0.00000001        0.00000001
      21         -3.115852        1.000000        0.00000000        0.00000001        0.00000000
      22         -3.115668        1.000000        0.00000007        0.00000009        0.00000004
      23         -3.115368        1.000000        0.00000000        0.00000001        0.00000000
      24         -3.115339        1.000000        0.00000002        0.00000002        0.00000001
      25         -3.115041        1.000000        0.00000002        0.00000005        0.00000000
      26         -3.114366        1.000000        0.00000001        0.00000007        0.00000004
      27         -3.113951        1.000000        0.00000000        0.00000000        0.00000000
      28         -3.113764        1.000000        0.00000003        0.00000001        0.00000001
      29         -3.112534        1.000000        0.00000001        0.00000002        0.00000000
      30         -3.111679        1.000000        0.00000000        0.00000008        0.00000002
      31         -1.784233        1.000000        0.00000000        0.00000000        0.00000000
      32         -1.782870        1.000000        0.00000000        0.00000000        0.00000000
      33         -1.782324        1.000000        0.00000000        0.00000000        0.00000000
      34         -1.782130        1.000000        0.00000000        0.00000000        0.00000000
      35         -1.781736        1.000000        0.00000000        0.00000000        0.00000000
      36         -1.781230        1.000000        0.00000000        0.00000000        0.00000000
      37         -1.780847        1.000000        0.00000000        0.00000000        0.00000000
      38         -1.780487        1.000000        0.00000000        0.00000000        0.00000000
      39         -1.780184        1.000000        0.00000000        0.00000000        0.00000000
      40         -1.779550        1.000000        0.00000000        0.00000000        0.00000000
      41         -1.779259        1.000000        0.00000000        0.00000000        0.00000000
      42         -1.778921        1.000000        0.00000000        0.00000000        0.00000000
      43         -1.778390        1.000000        0.00000000        0.00000000        0.00000000
      44         -1.778140        1.000000        0.00000000        0.00000000        0.00000000
      45         -1.777912        1.000000        0.00000000        0.00000000        0.00000000
      46         -1.777514        1.000000        0.00000000        0.00000000        0.00000000
      47         -1.777362        1.000000        0.00000000        0.00000000        0.00000000
      48         -1.776787        1.000000        0.00000000        0.00000000        0.00000000
      49         -1.776537        1.000000        0.00000000        0.00000000        0.00000000
      50         -1.776457        1.000000        0.00000000        0.00000000        0.00000000
      51         -1.776029        1.000000        0.00000000        0.00000000        0.00000000
      52         -1.774038        1.000000        0.00000000        0.00000000        0.00000000
      53         -1.773797        1.000000        0.00000000        0.00000000        0.00000000
      54         -1.773665        1.000000        0.00000000        0.00000000        0.00000000
      55         -1.772725        1.000000        0.00000000        0.00000000        0.00000000
      56         -1.772546        1.000000        0.00000000        0.00000000        0.00000000
      57         -1.772041        1.000000        0.00000000        0.00000000        0.00000000
      58         -1.771662        1.000000        0.00000000        0.00000000        0.00000000
      59         -1.771364        1.000000        0.00000000        0.00000000        0.00000000
      60         -1.770813        1.000000        0.00000000        0.00000000        0.00000000
      61         -1.770640        1.000000        0.00000000        0.00000000        0.00000000
      62         -1.770449        1.000000        0.00000000        0.00000000        0.00000000
      63         -1.770188        1.000000        0.00000000        0.00000000        0.00000000
      64         -1.770126        1.000000        0.00000000        0.00000000        0.00000000
      65         -1.769991        1.000000        0.00000000        0.00000000        0.00000000
      66         -1.769845        1.000000        0.00000000        0.00000000        0.00000000
      67         -1.769763        1.000000        0.00000000        0.00000000        0.00000000
      68         -1.769661        1.000000        0.00000000        0.00000000        0.00000000
      69         -1.769465        1.000000        0.00000000        0.00000000        0.00000000
      70         -1.769351        1.000000        0.00000000        0.00000000        0.00000000
      71         -1.769328        1.000000        0.00000000        0.00000000        0.00000000
      72         -1.769216        1.000000        0.00000000        0.00000000        0.00000000
      73         -1.769129        1.000000        0.00000000        0.00000000        0.00000000
      74         -1.769070        1.000000        0.00000000        0.00000000        0.00000000
      75         -1.768941        1.000000        0.00000000        0.00000000        0.00000000
      76         -1.768822        1.000000        0.00000000        0.00000000        0.00000000
      77         -1.768707        1.000000        0.00000000        0.00000000        0.00000000
      78         -1.768585        1.000000        0.00000000        0.00000000        0.00000000
      79         -1.768439        1.000000        0.00000000        0.00000000        0.00000000
      80         -1.768329        1.000000        0.00000000        0.00000000        0.00000000
      81         -1.768089        1.000000        0.00000000        0.00000000        0.00000000
      82         -1.767883        1.000000        0.00000000        0.00000000        0.00000000
      83         -1.767662        1.000000        0.00000000        0.00000000        0.00000000
      84         -1.767495        1.000000        0.00000000        0.00000000        0.00000000
      85         -1.767311        1.000000        0.00000000        0.00000000        0.00000000
      86         -1.767266        1.000000        0.00000000        0.00000000        0.00000000
      87         -1.767060        1.000000        0.00000000        0.00000000        0.00000000
      88         -1.767025        1.000000        0.00000000        0.00000000        0.00000000
      89         -1.766872        1.000000        0.00000000        0.00000000        0.00000000
      90         -1.766524        1.000000        0.00000000        0.00000000        0.00000000
      91         -1.766405        1.000000        0.00000000        0.00000000        0.00000000
      92         -1.766254        1.000000        0.00000000        0.00000000        0.00000000
      93         -1.766123        1.000000        0.00000000        0.00000000        0.00000000
      94         -1.765857        1.000000        0.00000000        0.00000000        0.00000000
      95         -1.765515        1.000000        0.00000000        0.00000001        0.00000000
      96         -1.765181        1.000000        0.00000000        0.00000001        0.00000000
      97         -1.765105        1.000000        0.00000000        0.00000000        0.00000000
      98         -1.764967        1.000000        0.00000000        0.00000000        0.00000000
      99         -1.764710        1.000000        0.00000000        0.00000000        0.00000000
     100         -1.764440        1.000000        0.00000000        0.00000000        0.00000000
     101         -1.764248        1.000000        0.00000000        0.00000000        0.00000000
     102         -1.763945        1.000000        0.00000000        0.00000000        0.00000000
     103         -1.763804        1.000000        0.00000000        0.00000001        0.00000000
     104         -1.763351        1.000000        0.00000000        0.00000000        0.00000000
     105         -1.763205        1.000000        0.00000000        0.00000000        0.00000000
     106         -1.763107        1.000000        0.00000000        0.00000000        0.00000000
     107         -1.762531        1.000000        0.00000000        0.00000000        0.00000000
     108         -1.762343        1.000000        0.00000000        0.00000000        0.00000000
     109         -1.761453        1.000000        0.00000000        0.00000000        0.00000000
     110         -1.760969        1.000000        0.00000000        0.00000000        0.00000000
     111         -1.760481        1.000000        0.00000000        0.00000000        0.00000000
     112         -1.760009        1.000000        0.00000000        0.00000000        0.00000000
     113         -1.759531        1.000000        0.00000000        0.00000000        0.00000000
     114         -1.759105        1.000000        0.00000000        0.00000000        0.00000000
     115         -1.758777        1.000000        0.00000000        0.00000000        0.00000000
     116         -1.757462        1.000000        0.00000000        0.00000000        0.00000000
     117         -1.756221        1.000000        0.00000000        0.00000000        0.00000000
     118         -1.755333        1.000000        0.00000000        0.00000000        0.00000000
     119         -1.754385        1.000000        0.00000000        0.00000000        0.00000000
     120         -1.752742        1.000000        0.00000000        0.00000000        0.00000000
     121         -1.131181        1.000000        0.00007980        0.00002091        0.00000324
     122         -1.128658        1.000000        0.00001779        0.00000675        0.00000087
     123         -1.128000        1.000000        0.00001366        0.00000220        0.00000055
     124         -1.126427        1.000000        0.00000209        0.00000060        0.00000014
     125         -1.120469        1.000000        0.00040102        0.00007960        0.00001268
     126         -1.119202        1.000000        0.00006740        0.00000883        0.00000217
     127         -1.117081        1.000000        0.00071299        0.00011375        0.00001898
     128         -1.116156        1.000000        0.00121543        0.00016020        0.00002799
     129         -1.115054        1.000000        0.00960920        0.00158691        0.00025420
     130         -1.111818        1.000000        0.00000110        0.00000068        0.00000133
     131         -1.111610        1.000000        0.00037915        0.00004151        0.00000846
     132         -1.110976        1.000000        0.00000001        0.00000275        0.00000037
     133         -1.109888        1.000000        0.00007674        0.00000361        0.00000192
     134         -1.108601        1.000000        0.00011620        0.00002079        0.00000631
     135         -1.108036        1.000000        0.00150178        0.00017952        0.00003044
     136         -1.107349        1.000000        0.00634109        0.00076228        0.00011716
     137         -1.106797        1.000000        0.00083297        0.00007606        0.00002039
     138         -1.106077        1.000000        0.00696200        0.00079083        0.00012000
     139         -1.104162        1.000000        0.00003713        0.00002109        0.00000939
     140         -1.102892        1.000000        0.00652350        0.00059033        0.00010306
     141         -1.102196        1.000000        0.00294022        0.00022929        0.00004030
     142         -1.101581        1.000000        0.00286685        0.00026336        0.00004355
     143         -1.101215        1.000000        0.00360718        0.00034366        0.00006030
     144         -1.099602        1.000000        0.00291348        0.00023183        0.00005503
     145         -1.098107        1.000000        0.00470874        0.00029929        0.00005692
     146         -1.097450        1.000000        0.00639623        0.00038831        0.00006130
     147         -1.097046        1.000000        0.00311445        0.00017509        0.00004942
     148         -1.095795        1.000000        0.00037360        0.00002868        0.00001312
     149         -1.095192        1.000000        0.00016109        0.00001118        0.00001461
     150         -1.093515        1.000000        0.00092351        0.00007156        0.00001028
     151         -1.093123        1.000000        0.01357744        0.00053416        0.00010050
     152         -1.092614        1.000000        0.01275140        0.00072641        0.00011611
     153         -1.091821        1.000000        0.00277347        0.00012090        0.00002975
     154         -1.090761        1.000000        0.00679399        0.00032306        0.00006322
     155         -1.090597        1.000000        0.00145049        0.00030476        0.00002833
     156         -1.089544        1.000000        0.00343376        0.00072852        0.00015136
     157         -1.088154        1.000000        0.00024879        0.00032952        0.00005505
     158         -1.086960        1.000000        0.00039612        0.00007349        0.00000867
     159         -1.086718        1.000000        0.00000026        0.00001948        0.00000161
     160         -1.085525        1.000000        0.00024229        0.00001676        0.00000567
     161         -1.084219        1.000000        0.00156173        0.00004536        0.00001070
     162         -1.082734        1.000000        0.00017404        0.00000645        0.00000218
     163         -1.082381        1.000000        0.01138706        0.00031721        0.00007908
     164         -1.080807        1.000000        0.00688138        0.00019398        0.00003314
     165         -1.080293        1.000000        0.00003899        0.00001214        0.00000578
     166         -1.079453        1.000000        0.04406430        0.00113341        0.00024234
     167         -1.078246        1.000000        0.00088153        0.00003055        0.00000712
     168         -1.077774        1.000000        0.00000421        0.00000842        0.00000239
     169         -1.077143        1.000000        0.00890772        0.00019480        0.00005536
     170         -1.076426        1.000000        0.00007562        0.00001017        0.00001239
     171         -1.076145        1.000000        0.00726446        0.00020913        0.00004212
     172         -1.074526        1.000000        0.00006206        0.00000365        0.00000593
     173         -1.074368        1.000000        0.00015033        0.00000554        0.00000977
     174         -1.073652        1.000000        0.01291330        0.00066807        0.00009680
     175         -1.072808        1.000000        0.00196511        0.00018501        0.00002921
     176         -1.072152        1.000000        0.00141170        0.00004374        0.00001249
     177         -1.071192        1.000000        0.00002397        0.00001719        0.00001372
     178         -1.070444        1.000000        0.00036194        0.00047731        0.00010312
     179         -1.070141        1.000000        0.00753699        0.00114787        0.00019257
     180         -1.069416        1.000000        0.00134935        0.00008188        0.00002097
     181         -1.069179        1.000000        0.00036881        0.00002704        0.00001260
     182         -1.067610        1.000000        0.00004008        0.00032793        0.00003177
     183         -1.066240        1.000000        0.00005071        0.00051669        0.00005914
     184         -1.065124        1.000000        0.00004880        0.00006139        0.00003017
     185         -1.064565        1.000000        0.00271612        0.00036712        0.00005863
     186         -1.063575        1.000000        0.00282152        0.00041247        0.00006980
     187         -1.062901        1.000000        0.00008625        0.00000445        0.00004701
     188         -1.062274        1.000000        0.00005879        0.00001256        0.00000529
     189         -1.061481        1.000000        0.00189802        0.00011568        0.00002479
     190         -1.061312        1.000000        0.00001866        0.00000518        0.00000437
     191         -1.060592        1.000000        0.00611702        0.00023612        0.00004536
     192         -1.059297        1.000000        0.00218056        0.00004718        0.00001369
     193         -1.058643        1.000000        0.00345904        0.00009900        0.00001367
     194         -1.058262        1.000000        0.00149423        0.00006926        0.00007041
     195         -1.057127        1.000000        0.00730110        0.00016784        0.00003635
     196         -1.056224        1.000000        0.00063404        0.00030817        0.00003826
     197         -1.056050        1.000000        0.00048276        0.00010067        0.00001268
     198         -1.054881        1.000000        0.00177696        0.00022706        0.00003427
     199         -1.054669        1.000000        0.00140715        0.00002882        0.00000218
     200         -1.053605        1.000000        0.00023693        0.00004736        0.00001112
     201         -1.053457        1.000000        0.00001835        0.00008487        0.00000802
     202         -1.052589        1.000000        0.00008724        0.00001068        0.00000085
     203         -1.052089        1.000000        0.00448779        0.00017593        0.00001972
     204         -1.051299        1.000000        0.00118790        0.00003336        0.00000283
     205         -1.050676        1.000000        0.00054811        0.00001722        0.00000680
     206         -1.050307        1.000000        0.00980537        0.00019276        0.00001270
     207         -1.049921        1.000000        0.00094136        0.00001564        0.00000195
     208         -1.049485        1.000000        0.00057011        0.00006631        0.00001056
     209         -1.049126        1.000000        0.00377117        0.00009931        0.00000884
     210         -1.048445        1.000000        0.00882322        0.00021530        0.00002327
     211         -1.048201        1.000000        0.00155108        0.00005282        0.00000523
     212         -1.047911        1.000000        0.03212230        0.00063343        0.00004311
     213         -1.047620        1.000000        0.00370450        0.00006589        0.00000996
     214         -1.046931        1.000000        0.01572677        0.00026888        0.00002206
     215         -1.046733        1.000000        0.01966488        0.00033760        0.00003668
     216         -1.046634        1.000000        0.01302122        0.00023682        0.00001352
     217         -1.045930        1.000000        0.00308014        0.00005444        0.00000168
     218         -1.045069        1.000000        0.00323542        0.00007959        0.00000298
     219         -1.044350        1.000000        0.00104223        0.00002664        0.00000180
     220         -1.043623        1.000000        0.05174238        0.00112592        0.00005382
     221         -1.043421        1.000000        0.00554065        0.00021003        0.00001569
     222         -1.042778        1.000000        0.00092146        0.00002647        0.00000043
     223         -1.042701        1.000000        0.00080115        0.00002935        0.00001164
     224         -1.042424        1.000000        0.00080739        0.00006260        0.00003866
     225         -1.041682        1.000000        0.00955327        0.00025539        0.00000968
     226         -1.041498        1.000000        0.00623988        0.00012415        0.00000818
     227         -1.040837        1.000000        0.00334076        0.00012668        0.00003268
     228         -1.040496        1.000000        0.00005667        0.00001378        0.00001130
     229         -1.040151        1.000000        0.00056046        0.00010756        0.00009142
     230         -1.039686        1.000000        0.00009987        0.00000458        0.00000077
     231         -1.038961        1.000000        0.00032847        0.00001544        0.00000601
     232         -1.038553        1.000000        0.00001937        0.00000691        0.00000497
     233         -1.038476        1.000000        0.00056648        0.00003988        0.00001316
     234         -1.038152        1.000000        0.00005867        0.00001202        0.00001880
     235         -1.038041        1.000000        0.00005058        0.00005249        0.00006841
     236         -1.036855        1.000000        0.00000653        0.00003284        0.00004258
     237         -1.036488        1.000000        0.00020712        0.00000929        0.00001301
     238         -1.036186        1.000000        0.00005655        0.00000208        0.00000020
     239         -1.036068        1.000000        0.00000045        0.00000011        0.00000028
     240         -1.035757        1.000000        0.00001991        0.00001168        0.00001330
     241         -1.035291        1.000000        0.00001643        0.00001056        0.00001354
     242         -1.035048        1.000000        0.00027067        0.00002974        0.00000767
     243         -1.035000        1.000000        0.00013505        0.00001218        0.00000655
     244         -1.034454        1.000000        0.00000688        0.00000801        0.00000825
     245         -1.034219        1.000000        0.00013165        0.00000909        0.00000621
     246         -1.033874        1.000000        0.00000506        0.00001258        0.00000782
     247         -1.033507        1.000000        0.00007233        0.00000422        0.00000068
     248         -1.033219        1.000000        0.00055921        0.00002529        0.00002620
     249         -1.033056        1.000000        0.00002422        0.00000765        0.00000621
     250         -1.032307        1.000000        0.00000352        0.00000513        0.00000052
     251         -1.031324        1.000000        0.00199131        0.00005628        0.00002593
     252         -1.031144        1.000000        0.00044549        0.00001201        0.00000413
     253         -1.030643        1.000000        0.00000444        0.00000630        0.00000508
     254         -1.030284        1.000000        0.00042809        0.00002516        0.00001234
     255         -1.030062        1.000000        0.00002403        0.00000095        0.00000212
     256         -1.029818        1.000000        0.00201346        0.00012439        0.00003112
     257         -1.028552        1.000000        0.00018361        0.00001758        0.00001048
     258         -1.027578        1.000000        0.00051097        0.00004835        0.00002738
     259         -1.027121        1.000000        0.00027143        0.00001206        0.00000479
     260         -1.026880        1.000000        0.00020598        0.00001397        0.00000700
     261         -1.026226        1.000000        0.00145098        0.00007532        0.00003708
     262         -1.025765        1.000000        0.00042249        0.00001935        0.00000788
     263         -1.025299        1.000000        0.00000384        0.00000024        0.00000011
     264         -1.025158        1.000000        0.00242446        0.00010631        0.00007478
     265         -1.025007        1.000000        0.00039186        0.00004175        0.00001080
     266         -1.024422        1.000000        0.02697197        0.00133663        0.00077111
     267         -1.023793        1.000000        0.00000146        0.00000025        0.00000108
     268         -1.023594        1.000000        0.00388910        0.00013973        0.00003964
     269         -1.023069        1.000000        0.00114742        0.00005628        0.00004381
     270         -1.022603        1.000000        0.00000394        0.00000163        0.00000269
     271         -1.022074        1.000000        0.00539025        0.00018575        0.00011966
     272         -1.021695        1.000000        0.00102515        0.00005396        0.00003622
     273         -1.021372        1.000000        0.00000009        0.00000043        0.00000009
     274         -1.021076        1.000000        0.00011670        0.00012709        0.00003664
     275         -1.019492        1.000000        0.00008056        0.00002567        0.00001093
     276         -1.018003        1.000000        0.00041314        0.00002427        0.00001242
     277         -1.016408        1.000000        0.00035223        0.00002389        0.00000968
     278         -1.016278        1.000000        0.00018477        0.00000609        0.00000664
     279         -1.015338        1.000000        0.00000276        0.00000010        0.00000001
     280         -1.013851        1.000000        0.00000689        0.00000365        0.00000273
     281         -1.010223        1.000000        0.00000000        0.00000006        0.00000018
     282         -1.009666        1.000000        0.00000028        0.00000002        0.00000000
     283         -1.007726        1.000000        0.00000238        0.00000291        0.00000448
     284         -1.007300        1.000000        0.00000002        0.00000024        0.00000041
     285         -1.006916        1.000000        0.00000009        0.00000001        0.00000000
     286         -0.889442        1.000000        0.00000140        0.00000005        0.00000019
     287         -0.869424        1.000000        0.00000012        0.00000007        0.00000014
     288         -0.867225        1.000000        0.00000069        0.00000012        0.00000014
     289         -0.864755        1.000000        0.00000020        0.00000013        0.00000005
     290         -0.860947        1.000000        0.00000020        0.00000012        0.00000007
     291         -0.846899        1.000000        0.00000002        0.00000007        0.00000004
     292         -0.844423        1.000000        0.00000006        0.00000002        0.00000001
     293         -0.843782        1.000000        0.00000016        0.00000003        0.00000003
     294         -0.840445        1.000000        0.00000007        0.00000013        0.00000009
     295         -0.821748        1.000000        0.00000005        0.00000006        0.00000004
     296         -0.818927        1.000000        0.00000001        0.00000001        0.00000001
     297         -0.814033        1.000000        0.00000152        0.00000006        0.00000019
     298         -0.808071        1.000000        0.00000042        0.00000009        0.00000006
     299         -0.807076        1.000000        0.00000013        0.00000001        0.00000004
     300         -0.806003        1.000000        0.00000008        0.00000001        0.00000004
     301         -0.805433        1.000000        0.00000000        0.00000002        0.00000004
     302         -0.803208        1.000000        0.00000008        0.00000002        0.00000004
     303         -0.802271        1.000000        0.00000008        0.00000004        0.00000002
     304         -0.801014        1.000000        0.00000023        0.00000008        0.00000009
     305         -0.800419        1.000000        0.00000000        0.00000003        0.00000001
     306         -0.800163        1.000000        0.00000030        0.00000007        0.00000017
     307         -0.798966        1.000000        0.00000001        0.00000005        0.00000004