# Projected DOS for list 368 of 1 atoms, at iteration step i = 0, E(Fermi) =    -0.245567 a.u.
#     MO Eigenvalue [a.u.]      Occupation                 s                 p
       1         -3.122063        1.000000        0.00000000        0.00000013
       2         -3.121278        1.000000        0.00000001        0.00000018
       3         -3.121021        1.000000        0.00000002        0.00000094
       4         -3.120578        1.000000        0.00000004        0.00000156
       5         -3.120271        1.000000        0.00000028        0.00000763
       6         -3.119857        1.000000        0.00000002        0.00000009
       7         -3.119652        1.000000        0.00000001        0.00000034
       8         -3.119624        1.000000        0.00000000        0.00000018
       9         -3.119219        1.000000        0.00000001        0.00000071
      10         -3.119023        1.000000        0.00000001        0.00000013
      11         -3.118913        1.000000        0.00000001        0.00000003
      12         -3.118874        1.000000        0.00000002        0.00000021
      13         -3.118317        1.000000        0.00000024        0.00001431
      14         -3.118249        1.000000        0.00000002        0.00000064
      15         -3.117895        1.000000        0.00000003        0.00000107
      16         -3.117383        1.000000        0.00000000        0.00000008
      17         -3.117165        1.000000        0.00000018        0.00000169
      18         -3.116815        1.000000        0.00000004        0.00000072
      19         -3.116436        1.000000        0.00000000        0.00000020
      20         -3.116021        1.000000        0.00000001        0.00000019
      21         -3.115852        1.000000        0.00000001        0.00000039
      22         -3.115668        1.000000        0.00000054        0.00001904
      23         -3.115368        1.000000        0.00000000        0.00000036
      24         -3.115339        1.000000        0.00000001        0.00000079
      25         -3.115041        1.000000        0.00000003        0.00000385
      26         -3.114366        1.000000        0.00000020        0.00000142
      27         -3.113951        1.000000        0.00000001        0.00000023
      28         -3.113764        1.000000        0.00000035        0.00000201
      29         -3.112534        1.000000        0.00000044        0.00000357
      30         -3.111679        1.000000        0.00000001        0.00000010
      31         -1.784233        1.000000        0.00000000        0.00000008
      32         -1.782870        1.000000        0.00000000        0.00000003
      33         -1.782324        1.000000        0.00000000        0.00000004
      34         -1.782130        1.000000        0.00000000        0.00000000
      35         -1.781736        1.000000        0.00000000        0.00000001
      36         -1.781230        1.000000        0.00000000        0.00000003
      37         -1.780847        1.000000        0.00000000        0.00000004
      38         -1.780487        1.000000        0.00000000        0.00000010
      39         -1.780184        1.000000        0.00000000        0.00000006
      40         -1.779550        1.000000        0.00000000        0.00000003
      41         -1.779259        1.000000        0.00000004        0.00000013
      42         -1.778921        1.000000        0.00000000        0.00000020
      43         -1.778390        1.000000        0.00000003        0.00000027
      44         -1.778140        1.000000        0.00000002        0.00000018
      45         -1.777912        1.000000        0.00000001        0.00000009
      46         -1.777514        1.000000        0.00000004        0.00000030
      47         -1.777362        1.000000        0.00000001        0.00000019
      48         -1.776787        1.000000        0.00000001        0.00000014
      49         -1.776537        1.000000        0.00000001        0.00000002
      50         -1.776457        1.000000        0.00000000        0.00000005
      51         -1.776029        1.000000        0.00000000        0.00000011
      52         -1.774038        1.000000        0.00000000        0.00000003
      53         -1.773797        1.000000        0.00000000        0.00000029
      54         -1.773665        1.000000        0.00000004        0.00000002
      55         -1.772725        1.000000        0.00000000        0.00000011
      56         -1.772546        1.000000        0.00000000        0.00000002
      57         -1.772041        1.000000        0.00000000        0.00000008
      58         -1.771662        1.000000        0.00000005        0.00000018
      59         -1.771364        1.000000        0.00000000        0.00000004
      60         -1.770813        1.000000        0.00000005        0.00000016
      61         -1.770640        1.000000        0.00000002        0.00000003
      62         -1.770449        1.000000        0.00000003        0.00000017
      63         -1.770188        1.000000        0.00000001        0.00000001
      64         -1.770126        1.000000        0.00000014        0.00000021
      65         -1.769991        1.000000        0.00000005        0.00000018
      66         -1.769845        1.000000        0.00000002        0.00000009
      67         -1.769763        1.000000        0.00000000        0.00000003
      68         -1.769661        1.000000        0.00000000        0.00000001
      69         -1.769465        1.000000        0.00000000        0.00000009
      70         -1.769351        1.000000        0.00000000        0.00000002
      71         -1.769328        1.000000        0.00000001        0.00000004
      72         -1.769216        1.000000        0.00000000        0.00000004
      73         -1.769129        1.000000        0.00000006        0.00000015
      74         -1.769070        1.000000        0.00000000        0.00000003
      75         -1.768941        1.000000        0.00000000        0.00000001
      76         -1.768822        1.000000        0.00000000        0.00000007
      77         -1.768707        1.000000        0.00000001        0.00000003
      78         -1.768585        1.000000        0.00000000        0.00000016
      79         -1.768439        1.000000        0.00000001        0.00000012
      80         -1.768329        1.000000        0.00000001        0.00000008
      81         -1.768089        1.000000        0.00000001        0.00000009
      82         -1.767883        1.000000        0.00000000        0.00000002
      83         -1.767662        1.000000        0.00000000        0.00000001
      84         -1.767495        1.000000        0.00000002        0.00000025
      85         -1.767311        1.000000        0.00000000        0.00000001
      86         -1.767266        1.000000        0.00000000        0.00000005
      87         -1.767060        1.000000        0.00000001        0.00000002
      88         -1.767025        1.000000        0.00000000        0.00000012
      89         -1.766872        1.000000        0.00000000        0.00000007
      90         -1.766524        1.000000        0.00000000        0.00000006
      91         -1.766405        1.000000        0.00000005        0.00000003
      92         -1.766254        1.000000        0.00000000        0.00000001
      93         -1.766123        1.000000        0.00000000        0.00000003
      94         -1.765857        1.000000        0.00000001        0.00000004
      95         -1.765515        1.000000        0.00000012        0.00000011
      96         -1.765181        1.000000        0.00000005        0.00000007
      97         -1.765105        1.000000        0.00000004        0.00000001
      98         -1.764967        1.000000        0.00000002        0.00000000
      99         -1.764710        1.000000        0.00000000        0.00000002
     100         -1.764440        1.000000        0.00000001        0.00000006
     101         -1.764248        1.000000        0.00000004        0.00000008
     102         -1.763945        1.000000        0.00000000        0.00000002
     103         -1.763804        1.000000        0.00000001        0.00000003
     104         -1.763351        1.000000        0.00000000        0.00000005
     105         -1.763205        1.000000        0.00000002        0.00000001
     106         -1.763107        1.000000        0.00000000        0.00000006
     107         -1.762531        1.000000        0.00000001        0.00000000
     108         -1.762343        1.000000        0.00000001        0.00000005
     109         -1.761453        1.000000        0.00000002        0.00000007
     110         -1.760969        1.000000        0.00000000        0.00000004
     111         -1.760481        1.000000        0.00000000        0.00000003
     112         -1.760009        1.000000        0.00000005        0.00000029
     113         -1.759531        1.000000        0.00000000        0.00000003
     114         -1.759105        1.000000        0.00000002        0.00000014
     115         -1.758777        1.000000        0.00000000        0.00000001
     116         -1.757462        1.000000        0.00000000        0.00000000
     117         -1.756221        1.000000        0.00000000        0.00000001
     118         -1.755333        1.000000        0.00000000        0.00000000
     119         -1.754385        1.000000        0.00000000        0.00000000
     120         -1.752742        1.000000        0.00000000        0.00000000
     121         -1.131181        1.000000        0.00000760        0.00001799
     122         -1.128658        1.000000        0.00000073        0.00000727
     123         -1.128000        1.000000        0.00000190        0.00000302
     124         -1.126427        1.000000        0.00000002        0.00000036
     125         -1.120469        1.000000        0.00000909        0.00001535
     126         -1.119202        1.000000        0.00000196        0.00000670
     127         -1.117081        1.000000        0.00001893        0.00002091
     128         -1.116156        1.000000        0.00000527        0.00001806
     129         -1.115054        1.000000        0.00034968        0.00040418
     130         -1.111818        1.000000        0.00001199        0.00000866
     131         -1.111610        1.000000        0.00006062        0.00012349
     132         -1.110976        1.000000        0.00002166        0.00002559
     133         -1.109888        1.000000        0.00007130        0.00011481
     134         -1.108601        1.000000        0.00000120        0.00001093
     135         -1.108036        1.000000        0.00003989        0.00001817
     136         -1.107349        1.000000        0.00004851        0.00010955
     137         -1.106797        1.000000        0.00006175        0.00006186
     138         -1.106077        1.000000        0.00002637        0.00022413
     139         -1.104162        1.000000        0.00000006        0.00001598
     140         -1.102892        1.000000        0.00012263        0.00005514
     141         -1.102196        1.000000        0.00006425        0.00008436
     142         -1.101581        1.000000        0.00000256        0.00005693
     143         -1.101215        1.000000        0.00003046        0.00017438
     144         -1.099602        1.000000        0.00002228        0.00013752
     145         -1.098107        1.000000        0.00000551        0.00011720
     146         -1.097450        1.000000        0.00000404        0.00013042
     147         -1.097046        1.000000        0.00010640        0.00005034
     148         -1.095795        1.000000        0.00005455        0.00001829
     149         -1.095192        1.000000        0.00004409        0.00003834
     150         -1.093515        1.000000        0.00004505        0.00004013
     151         -1.093123        1.000000        0.00009299        0.00008701
     152         -1.092614        1.000000        0.00000802        0.00018885
     153         -1.091821        1.000000        0.00005717        0.00001417
     154         -1.090761        1.000000        0.00006162        0.00032435
     155         -1.090597        1.000000        0.00000683        0.00006949
     156         -1.089544        1.000000        0.00000018        0.00002958
     157         -1.088154        1.000000        0.00012226        0.00006421
     158         -1.086960        1.000000        0.00003845        0.00000973
     159         -1.086718        1.000000        0.00001618        0.00018662
     160         -1.085525        1.000000        0.00000781        0.00014432
     161         -1.084219        1.000000        0.00009799        0.00004007
     162         -1.082734        1.000000        0.00001086        0.00004026
     163         -1.082381        1.000000        0.00010633        0.00008079
     164         -1.080807        1.000000        0.00013318        0.00021950
     165         -1.080293        1.000000        0.00010787        0.00004058
     166         -1.079453        1.000000        0.00110296        0.00067392
     167         -1.078246        1.000000        0.00011872        0.00000853
     168         -1.077774        1.000000        0.00057801        0.00003118
     169         -1.077143        1.000000        0.00073816        0.00054687
     170         -1.076426        1.000000        0.00000207        0.00001498
     171         -1.076145        1.000000        0.00098907        0.00080790
     172         -1.074526        1.000000        0.00001516        0.00001664
     173         -1.074368        1.000000        0.00002525        0.00036822
     174         -1.073652        1.000000        0.00429274        0.00115217
     175         -1.072808        1.000000        0.00045913        0.00015319
     176         -1.072152        1.000000        0.00106617        0.00056868
     177         -1.071192        1.000000        0.00006614        0.00086350
     178         -1.070444        1.000000        0.00689320        0.00265433
     179         -1.070141        1.000000        0.00379871        0.00097457
     180         -1.069416        1.000000        0.00000346        0.00013577
     181         -1.069179        1.000000        0.00152298        0.00023956
     182         -1.067610        1.000000        0.00039265        0.00023611
     183         -1.066240        1.000000        0.00012709        0.00023287
     184         -1.065124        1.000000        0.00110466        0.00120827
     185         -1.064565        1.000000        0.00011531        0.00046626
     186         -1.063575        1.000000        0.00021492        0.00081524
     187         -1.062901        1.000000        0.00322126        0.00045249
     188         -1.062274        1.000000        0.00034590        0.00001748
     189         -1.061481        1.000000        0.00011547        0.00012458
     190         -1.061312        1.000000        0.00007026        0.00005751
     191         -1.060592        1.000000        0.00073557        0.00023982
     192         -1.059297        1.000000        0.00224175        0.00093991
     193         -1.058643        1.000000        0.00083055        0.00008264
     194         -1.058262        1.000000        0.01302763        0.00558833
     195         -1.057127        1.000000        0.01644642        0.00793708
     196         -1.056224        1.000000        0.03216700        0.01247671
     197         -1.056050        1.000000        0.00560229        0.00234659
     198         -1.054881        1.000000        0.02278939        0.01044557
     199         -1.054669        1.000000        0.00036976        0.00004832
     200         -1.053605        1.000000        0.00425953        0.00193030
     201         -1.053457        1.000000        0.00688333        0.00307236
     202         -1.052589        1.000000        0.00053327        0.00020375
     203         -1.052089        1.000000        0.00645093        0.00239161
     204         -1.051299        1.000000        0.00079880        0.00029949
     205         -1.050676        1.000000        0.00013809        0.00000799
     206         -1.050307        1.000000        0.00272762        0.00050075
     207         -1.049921        1.000000        0.00006644        0.00005138
     208         -1.049485        1.000000        0.00313361        0.00202526
     209         -1.049126        1.000000        0.00206248        0.00117841
     210         -1.048445        1.000000        0.00141997        0.00047982
     211         -1.048201        1.000000        0.00003541        0.00002886
     212         -1.047911        1.000000        0.00523084        0.00231084
     213         -1.047620        1.000000        0.00069392        0.00003731
     214         -1.046931        1.000000        0.00041075        0.00010988
     215         -1.046733        1.000000        0.00071723        0.00000590
     216         -1.046634        1.000000        0.00113195        0.00001801
     217         -1.045930        1.000000        0.00007027        0.00001563
     218         -1.045069        1.000000        0.00012780        0.00119836
     219         -1.044350        1.000000        0.00002853        0.00001627
     220         -1.043623        1.000000        0.00048870        0.00010413
     221         -1.043421        1.000000        0.00469720        0.00932894
     222         -1.042778        1.000000        0.00001164        0.00007692
     223         -1.042701        1.000000        0.00001405        0.00002132
     224         -1.042424        1.000000        0.00002438        0.00001210
     225         -1.041682        1.000000        0.00021041        0.00024934
     226         -1.041498        1.000000        0.00034170        0.00084948
     227         -1.040837        1.000000        0.00019513        0.00019936
     228         -1.040496        1.000000        0.00000159        0.00001132
     229         -1.040151        1.000000        0.00002209        0.00004951
     230         -1.039686        1.000000        0.00000911        0.00005254
     231         -1.038961        1.000000        0.00000691        0.00000071
     232         -1.038553        1.000000        0.00004003        0.00022868
     233         -1.038476        1.000000        0.00001107        0.00008453
     234         -1.038152        1.000000        0.00005740        0.00003153
     235         -1.038041        1.000000        0.00011843        0.00006438
     236         -1.036855        1.000000        0.00023711        0.00033465
     237         -1.036488        1.000000        0.00034307        0.00097792
     238         -1.036186        1.000000        0.00000012        0.00000034
     239         -1.036068        1.000000        0.00000166        0.00000088
     240         -1.035757        1.000000        0.00010718        0.00046319
     241         -1.035291        1.000000        0.00019620        0.00056194
     242         -1.035048        1.000000        0.00003551        0.00035524
     243         -1.035000        1.000000        0.00000864        0.00002153
     244         -1.034454        1.000000        0.00006782        0.00028850
     245         -1.034219        1.000000        0.00004768        0.00022667
     246         -1.033874        1.000000        0.00028025        0.00125605
     247         -1.033507        1.000000        0.00000259        0.00001182
     248         -1.033219        1.000000        0.00028874        0.00071631
     249         -1.033056        1.000000        0.00015914        0.00050249
     250         -1.032307        1.000000        0.00006548        0.00045343
     251         -1.031324        1.000000        0.00012034        0.00121268
     252         -1.031144        1.000000        0.00001813        0.00013637
     253         -1.030643        1.000000        0.00000141        0.00000466
     254         -1.030284        1.000000        0.00004497        0.00038601
     255         -1.030062        1.000000        0.00001580        0.00014418
     256         -1.029818        1.000000        0.00017837        0.00000120
     257         -1.028552        1.000000        0.00000765        0.00008815
     258         -1.027578        1.000000        0.00008974        0.00052475
     259         -1.027121        1.000000        0.00002839        0.00000146
     260         -1.026880        1.000000        0.00002408        0.00025214
     261         -1.026226        1.000000        0.00004193        0.00005152
     262         -1.025765        1.000000        0.00000350        0.00002590
     263         -1.025299        1.000000        0.00000047        0.00000020
     264         -1.025158        1.000000        0.00038581        0.00016737
     265         -1.025007        1.000000        0.00008944        0.00009568
     266         -1.024422        1.000000        0.00070019        0.00034952
     267         -1.023793        1.000000        0.00000083        0.00000016
     268         -1.023594        1.000000        0.00001539        0.00000727
     269         -1.023069        1.000000        0.00003665        0.00001460
     270         -1.022603        1.000000        0.00009120        0.00003954
     271         -1.022074        1.000000        0.00069696        0.00029826
     272         -1.021695        1.000000        0.00000569        0.00000452
     273         -1.021372        1.000000        0.00002068        0.00000851
     274         -1.021076        1.000000        0.00285291        0.00131425
     275         -1.019492        1.000000        0.00000616        0.00004074
     276         -1.018003        1.000000        0.00000320        0.00000032
     277         -1.016408        1.000000        0.00260523        0.00109421
     278         -1.016278        1.000000        0.00026306        0.00011143
     279         -1.015338        1.000000        0.00000543        0.00001846
     280         -1.013851        1.000000        0.00000122        0.00000207
     281         -1.010223        1.000000        0.00000064        0.00000127
     282         -1.009666        1.000000        0.00000002        0.00000005
     283         -1.007726        1.000000        0.00000150        0.00000226
     284         -1.007300        1.000000        0.00000030        0.00000015
     285         -1.006916        1.000000        0.00000000        0.00000000
     286         -0.889442        1.000000        0.00000089        0.00012107
     287         -0.869424        1.000000        0.00000005        0.00001467
     288         -0.867225        1.000000        0.00000114        0.00010771
     289         -0.864755        1.000000        0.00000032        0.00005287
     290         -0.860947        1.000000        0.00000089        0.00009659
     291         -0.846899        1.000000        0.00000030        0.00001686
     292         -0.844423        1.000000        0.00000089        0.00006524
     293         -0.843782        1.000000        0.00000007        0.00000752
     294         -0.840445        1.000000        0.00000119        0.00003853
     295         -0.821748        1.000000        0.00000049        0.00002406
     296         -0.818927        1.000000        0.00000102        0.00000920
     297         -0.814033        1.000000        0.00000150        0.00017545
     298         -0.808071        1.000000        0.00000187        0.00007924
     299         -0.807076        1.000000        0.00000041        0.00001411
     300         -0.806003        1.000000        0.00000082        0.00002420
     301         -0.805433        1.000000        0.00000000        0.00000929
     302         -0.803208        1.000000        0.00000138        0.00001265
     303         -0.802271        1.000000        0.00000101        0.00005752
     304         -0.801014        1.000000        0.00000001        0.00004082
     305         -0.800419        1.000000        0.00000073        0.00000668
     306         -0.800163        1.000000        0.00000055        0.00002510
     307         -0.798966        1.000000        0.00000069        0.00000789
     308         -0.796270        1.000000        0.00000112        0.00003333
     309         -0.795746        1.000000        0.00000013        0.00000663
     310         -0.794333        1.000000        0.00000057        0.00001452
     311         -0.792293        1.000000        0.00000050        0.00001115
     312         -0.791548        1.000000        0.00000195        0.00001090
     313         -0.790603        1.000000        0.00000155        0.00001184
     314         -0.790424        1.000000        0.00000092        0.00000974
     315         -0.789930        1.000000        0.00000032        0.00000169
     316         -0.788450        1.000000        0.00000119        0.00001689
     317         -0.787526        1.000000        0.00000105        0.00002017
     318         -0.786788        1.000000        0.00000002        0.00000522
     319         -0.781836        1.000000        0.00000006        0.00000247
     320         -0.780998        1.000000        0.00000069        0.00000683
     321         -0.780477        1.000000        0.00000082        0.00001186
     322         -0.779060        1.000000        0.00000018        0.00000390
     323         -0.778943        1.000000        0.00000023        0.00000542
     324         -0.777233        1.000000        0.00000021        0.00000507
     325         -0.775897        1.000000        0.00000004        0.00000695
     326         -0.774887        1.000000        0.00000011        0.00000504
     327         -0.773671        1.000000        0.00000015        0.00000309
     328         -0.773422        1.000000        0.00000026        0.00000097
     329         -0.772414        1.000000        0.00000145        0.00001789
     330         -0.771266        1.000000        0.00000077        0.00000057
     331         -0.770604        1.000000        0.00000032        0.00000268
     332         -0.769886        1.000000        0.00000060        0.00000227
     333         -0.769439        1.000000        0.00000020        0.00000493
     334         -0.769009        1.000000        0.00000021        0.00000177
     335         -0.767483        1.000000        0.00000118        0.00001191
     336         -0.766717        1.000000        0.00000088        0.00001027
     337         -0.765490        1.000000        0.00000011        0.00000103
     338         -0.763700        1.000000        0.00000165        0.00002099
     339         -0.762625        1.000000        0.00000005        0.00000139
     340         -0.761653        1.000000        0.00000009        0.00000048
     341         -0.761196        1.000000        0.00000045        0.00000311
     342         -0.759265        1.000000        0.00000008        0.00000136
     343         -0.758410        1.000000        0.00000004        0.00000121
     344         -0.755260        1.000000        0.00000007        0.00000036
     345         -0.754586        1.000000        0.00000006        0.00000038
     346         -0.703685        1.000000        0.00000132        0.00000039
     347         -0.693847        1.000000        0.00000419        0.00000017
     348         -0.690060        1.000000        0.00000041        0.00000029
     349         -0.688902        1.000000        0.00000005        0.00000066
     350         -0.684111        1.000000        0.00000033        0.00000285
     351         -0.681092        1.000000        0.00001087        0.00000523
     352         -0.678905        1.000000        0.00002273        0.00000137
     353         -0.676982        1.000000        0.00001031        0.00000628
     354         -0.673929        1.000000        0.00000147        0.00000088
     355         -0.673106        1.000000        0.00000873        0.00001486
     356         -0.670728        1.000000        0.00000138        0.00000254
     357         -0.670092        1.000000        0.00000111        0.00000088
     358         -0.669168        1.000000        0.00000105        0.00000507
     359         -0.667801        1.000000        0.00002638        0.00000602
     360         -0.665884        1.000000        0.00001530        0.00000377
     361         -0.664702        1.000000        0.00004408        0.00000766
     362         -0.662263        1.000000        0.00000201        0.00000601
     363         -0.660875        1.000000        0.00000012        0.00000232
     364         -0.658191        1.000000        0.00001088        0.00001034
     365         -0.657373        1.000000        0.00002328        0.00000720
     366         -0.655967        1.000000        0.00002459        0.00001622
     367         -0.655536        1.000000        0.00000181        0.00000097
     368         -0.653752        1.000000        0.00007817        0.00002706
     369         -0.651127        1.000000        0.00001253        0.00000177
     370         -0.648938        1.000000        0.00000966        0.00002393
     371         -0.647875        1.000000        0.00000107        0.00001189
     372         -0.644925        1.000000        0.00002669        0.00001901
     373         -0.644581        1.000000        0.00000026        0.00000080
     374         -0.641910        1.000000        0.00000748        0.00001171
     375         -0.641212        1.000000        0.00000233        0.00000186
     376         -0.639876        1.000000        0.00000524        0.00001049
     377         -0.637901        1.000000        0.00008257        0.00002554