# Projected DOS for list 167 of 1 atoms, at iteration step i = 0, E(Fermi) =    -0.245567 a.u.
#     MO Eigenvalue [a.u.]      Occupation                 s                 p                 d
       1         -3.122063        1.000000        0.00000000        0.00000000        0.00000000
       2         -3.121278        1.000000        0.00000000        0.00000000        0.00000000
       3         -3.121021        1.000000        0.00000000        0.00000000        0.00000000
       4         -3.120578        1.000000        0.00000000        0.00000000        0.00000000
       5         -3.120271        1.000000        0.00000000        0.00000000        0.00000000
       6         -3.119857        1.000000        0.00000000        0.00000000        0.00000000
       7         -3.119652        1.000000        0.00000000        0.00000000        0.00000000
       8         -3.119624        1.000000        0.00000000        0.00000000        0.00000000
       9         -3.119219        1.000000        0.00000000        0.00000000        0.00000000
      10         -3.119023        1.000000        0.00000000        0.00000000        0.00000000
      11         -3.118913        1.000000        0.00000000        0.00000000        0.00000000
      12         -3.118874        1.000000        0.00000000        0.00000000        0.00000000
      13         -3.118317        1.000000        0.00000000        0.00000000        0.00000000
      14         -3.118249        1.000000        0.00000000        0.00000000        0.00000000
      15         -3.117895        1.000000        0.00000000        0.00000000        0.00000000
      16         -3.117383        1.000000        0.00000000        0.00000000        0.00000000
      17         -3.117165        1.000000        0.00000000        0.00000000        0.00000000
      18         -3.116815        1.000000        0.00000000        0.00000000        0.00000000
      19         -3.116436        1.000000        0.00000000        0.00000000        0.00000000
      20         -3.116021        1.000000        0.00000000        0.00000000        0.00000000
      21         -3.115852        1.000000        0.00000000        0.00000000        0.00000000
      22         -3.115668        1.000000        0.00000000        0.00000000        0.00000000
      23         -3.115368        1.000000        0.00000000        0.00000000        0.00000000
      24         -3.115339        1.000000        0.00000000        0.00000000        0.00000000
      25         -3.115041        1.000000        0.00000000        0.00000000        0.00000000
      26         -3.114366        1.000000        0.00000000        0.00000000        0.00000000
      27         -3.113951        1.000000        0.00000000        0.00000000        0.00000000
      28         -3.113764        1.000000        0.00000000        0.00000000        0.00000000
      29         -3.112534        1.000000        0.00000000        0.00000000        0.00000000
      30         -3.111679        1.000000        0.00000000        0.00000000        0.00000000
      31         -1.784233        1.000000        0.00000000        0.00000000        0.00000000
      32         -1.782870        1.000000        0.00000000        0.00000000        0.00000000
      33         -1.782324        1.000000        0.00000000        0.00000000        0.00000000
      34         -1.782130        1.000000        0.00000000        0.00000000        0.00000000
      35         -1.781736        1.000000        0.00000000        0.00000000        0.00000000
      36         -1.781230        1.000000        0.00000000        0.00000000        0.00000000
      37         -1.780847        1.000000        0.00000000        0.00000000        0.00000000
      38         -1.780487        1.000000        0.00000000        0.00000000        0.00000000
      39         -1.780184        1.000000        0.00000000        0.00000000        0.00000000
      40         -1.779550        1.000000        0.00000000        0.00000000        0.00000000
      41         -1.779259        1.000000        0.00000000        0.00000000        0.00000000
      42         -1.778921        1.000000        0.00000000        0.00000000        0.00000000
      43         -1.778390        1.000000        0.00000000        0.00000000        0.00000000
      44         -1.778140        1.000000        0.00000000        0.00000000        0.00000000
      45         -1.777912        1.000000        0.00000000        0.00000000        0.00000000
      46         -1.777514        1.000000        0.00000000        0.00000000        0.00000000
      47         -1.777362        1.000000        0.00000000        0.00000000        0.00000000
      48         -1.776787        1.000000        0.00000000        0.00000000        0.00000000
      49         -1.776537        1.000000        0.00000000        0.00000000        0.00000000
      50         -1.776457        1.000000        0.00000000        0.00000000        0.00000000
      51         -1.776029        1.000000        0.00000000        0.00000000        0.00000000
      52         -1.774038        1.000000        0.00000000        0.00000000        0.00000000
      53         -1.773797        1.000000        0.00000000        0.00000000        0.00000000
      54         -1.773665        1.000000        0.00000000        0.00000000        0.00000000
      55         -1.772725        1.000000        0.00000000        0.00000000        0.00000000
      56         -1.772546        1.000000        0.00000000        0.00000000        0.00000000
      57         -1.772041        1.000000        0.00000000        0.00000000        0.00000000
      58         -1.771662        1.000000        0.00000000        0.00000000        0.00000000
      59         -1.771364        1.000000        0.00000000        0.00000000        0.00000000
      60         -1.770813        1.000000        0.00000000        0.00000000        0.00000000
      61         -1.770640        1.000000        0.00000000        0.00000000        0.00000000
      62         -1.770449        1.000000        0.00000000        0.00000000        0.00000000
      63         -1.770188        1.000000        0.00000000        0.00000000        0.00000000
      64         -1.770126        1.000000        0.00000000        0.00000000        0.00000000
      65         -1.769991        1.000000        0.00000000        0.00000000        0.00000000
      66         -1.769845        1.000000        0.00000000        0.00000000        0.00000000
      67         -1.769763        1.000000        0.00000000        0.00000000        0.00000000
      68         -1.769661        1.000000        0.00000000        0.00000000        0.00000000
      69         -1.769465        1.000000        0.00000000        0.00000000        0.00000000
      70         -1.769351        1.000000        0.00000000        0.00000000        0.00000000
      71         -1.769328        1.000000        0.00000000        0.00000000        0.00000000
      72         -1.769216        1.000000        0.00000000        0.00000000        0.00000000
      73         -1.769129        1.000000        0.00000000        0.00000000        0.00000000
      74         -1.769070        1.000000        0.00000000        0.00000000        0.00000000
      75         -1.768941        1.000000        0.00000000        0.00000000        0.00000000
      76         -1.768822        1.000000        0.00000000        0.00000000        0.00000000
      77         -1.768707        1.000000        0.00000000        0.00000000        0.00000000
      78         -1.768585        1.000000        0.00000000        0.00000000        0.00000000
      79         -1.768439        1.000000        0.00000000        0.00000000        0.00000000
      80         -1.768329        1.000000        0.00000000        0.00000000        0.00000000
      81         -1.768089        1.000000        0.00000000        0.00000000        0.00000000
      82         -1.767883        1.000000        0.00000000        0.00000000        0.00000000
      83         -1.767662        1.000000        0.00000000        0.00000000        0.00000000
      84         -1.767495        1.000000        0.00000000        0.00000000        0.00000000
      85         -1.767311        1.000000        0.00000000        0.00000000        0.00000000
      86         -1.767266        1.000000        0.00000000        0.00000000        0.00000000
      87         -1.767060        1.000000        0.00000000        0.00000000        0.00000000
      88         -1.767025        1.000000        0.00000000        0.00000000        0.00000000
      89         -1.766872        1.000000        0.00000000        0.00000000        0.00000000
      90         -1.766524        1.000000        0.00000000        0.00000000        0.00000000
      91         -1.766405        1.000000        0.00000000        0.00000000        0.00000000
      92         -1.766254        1.000000        0.00000000        0.00000000        0.00000000
      93         -1.766123        1.000000        0.00000000        0.00000000        0.00000000
      94         -1.765857        1.000000        0.00000000        0.00000000        0.00000000
      95         -1.765515        1.000000        0.00000000        0.00000000        0.00000000
      96         -1.765181        1.000000        0.00000000        0.00000000        0.00000000
      97         -1.765105        1.000000        0.00000000        0.00000000        0.00000000
      98         -1.764967        1.000000        0.00000000        0.00000000        0.00000000
      99         -1.764710        1.000000        0.00000000        0.00000000        0.00000000
     100         -1.764440        1.000000        0.00000000        0.00000000        0.00000000
     101         -1.764248        1.000000        0.00000000        0.00000000        0.00000000
     102         -1.763945        1.000000        0.00000000        0.00000000        0.00000000
     103         -1.763804        1.000000        0.00000000        0.00000000        0.00000000
     104         -1.763351        1.000000        0.00000000        0.00000000        0.00000000
     105         -1.763205        1.000000        0.00000000        0.00000000        0.00000000
     106         -1.763107        1.000000        0.00000000        0.00000000        0.00000000
     107         -1.762531        1.000000        0.00000000        0.00000000        0.00000000
     108         -1.762343        1.000000        0.00000000        0.00000000        0.00000000
     109         -1.761453        1.000000        0.00000000        0.00000000        0.00000000
     110         -1.760969        1.000000        0.00000000        0.00000000        0.00000000
     111         -1.760481        1.000000        0.00000000        0.00000000        0.00000000
     112         -1.760009        1.000000        0.00000000        0.00000000        0.00000000
     113         -1.759531        1.000000        0.00000000        0.00000000        0.00000000
     114         -1.759105        1.000000        0.00000000        0.00000000        0.00000000
     115         -1.758777        1.000000        0.00000000        0.00000000        0.00000000
     116         -1.757462        1.000000        0.00000000        0.00000000        0.00000000
     117         -1.756221        1.000000        0.00000000        0.00000000        0.00000000
     118         -1.755333        1.000000        0.00000000        0.00000000        0.00000000
     119         -1.754385        1.000000        0.00000000        0.00000000        0.00000000
     120         -1.752742        1.000000        0.00000000        0.00000000        0.00000000
     121         -1.131181        1.000000        0.00040764        0.00003042        0.00001246
     122         -1.128658        1.000000        0.00039416        0.00004187        0.00001417
     123         -1.128000        1.000000        0.00127738        0.00011412        0.00004340
     124         -1.126427        1.000000        0.00018889        0.00002579        0.00000665
     125         -1.120469        1.000000        0.00164951        0.00002507        0.00005212
     126         -1.119202        1.000000        0.00090888        0.00001865        0.00002357
     127         -1.117081        1.000000        0.00013666        0.00007413        0.00000254
     128         -1.116156        1.000000        0.00085798        0.00008642        0.00001982
     129         -1.115054        1.000000        0.00010932        0.00002362        0.00000371
     130         -1.111818        1.000000        0.00534593        0.00061667        0.00010245
     131         -1.111610        1.000000        0.00010156        0.00028748        0.00001045
     132         -1.110976        1.000000        0.01877498        0.00088492        0.00037897
     133         -1.109888        1.000000        0.00240781        0.00010304        0.00006399
     134         -1.108601        1.000000        0.00054401        0.00073042        0.00004680
     135         -1.108036        1.000000        0.00030421        0.00003681        0.00000416
     136         -1.107349        1.000000        0.00420851        0.00062207        0.00008045
     137         -1.106797        1.000000        0.01365072        0.00034954        0.00026873
     138         -1.106077        1.000000        0.02685140        0.00065096        0.00048159
     139         -1.104162        1.000000        0.00704881        0.00021140        0.00013484
     140         -1.102892        1.000000        0.00491021        0.00041693        0.00007707
     141         -1.102196        1.000000        0.00027722        0.00008778        0.00000550
     142         -1.101581        1.000000        0.00043681        0.00033168        0.00001146
     143         -1.101215        1.000000        0.00922066        0.00126193        0.00013722
     144         -1.099602        1.000000        0.00110946        0.00010454        0.00001317
     145         -1.098107        1.000000        0.00000742        0.00002693        0.00000143
     146         -1.097450        1.000000        0.00064813        0.00118599        0.00005981
     147         -1.097046        1.000000        0.00000640        0.00003159        0.00002147
     148         -1.095795        1.000000        0.02460806        0.00067356        0.00033272
     149         -1.095192        1.000000        0.00903995        0.00029310        0.00007808
     150         -1.093515        1.000000        0.00047613        0.00008605        0.00001193
     151         -1.093123        1.000000        0.00330242        0.00028178        0.00004585
     152         -1.092614        1.000000        0.00129978        0.00064703        0.00002967
     153         -1.091821        1.000000        0.00001022        0.00048962        0.00001045
     154         -1.090761        1.000000        0.00009430        0.00022078        0.00001853
     155         -1.090597        1.000000        0.00092511        0.00001843        0.00001749
     156         -1.089544        1.000000        0.00111006        0.00006509        0.00000723
     157         -1.088154        1.000000        0.00200080        0.00022713        0.00003392
     158         -1.086960        1.000000        0.00241010        0.00141586        0.00012897
     159         -1.086718        1.000000        0.00006016        0.00050542        0.00001917
     160         -1.085525        1.000000        0.00254970        0.00017180        0.00005094
     161         -1.084219        1.000000        0.00589602        0.00098270        0.00006835
     162         -1.082734        1.000000        0.00013587        0.00081770        0.00000993
     163         -1.082381        1.000000        0.00028848        0.00028976        0.00001571
     164         -1.080807        1.000000        0.00517032        0.00156027        0.00008481
     165         -1.080293        1.000000        0.00108488        0.00005435        0.00002588
     166         -1.079453        1.000000        0.00001077        0.00033040        0.00001794
     167         -1.078246        1.000000        0.00454287        0.00006724        0.00003094
     168         -1.077774        1.000000        0.00059179        0.00001374        0.00000174
     169         -1.077143        1.000000        0.00148811        0.00005398        0.00001618
     170         -1.076426        1.000000        0.00063106        0.00004709        0.00003036
     171         -1.076145        1.000000        0.00138657        0.00074218        0.00002758
     172         -1.074526        1.000000        0.00332054        0.00010082        0.00003589
     173         -1.074368        1.000000        0.00064138        0.00052740        0.00005128
     174         -1.073652        1.000000        0.00276696        0.00032469        0.00002033
     175         -1.072808        1.000000        0.00124805        0.00030496        0.00003072
     176         -1.072152        1.000000        0.00699234        0.00090589        0.00008631
     177         -1.071192        1.000000        0.00090107        0.00078831        0.00005890
     178         -1.070444        1.000000        0.00109068        0.00014661        0.00001444
     179         -1.070141        1.000000        0.00059657        0.00000828        0.00000491
     180         -1.069416        1.000000        0.00657091        0.00032321        0.00002005
     181         -1.069179        1.000000        0.00448507        0.00014321        0.00001272
     182         -1.067610        1.000000        0.00099481        0.00008092        0.00000681
     183         -1.066240        1.000000        0.00073235        0.00013988        0.00001953
     184         -1.065124        1.000000        0.00407138        0.00049935        0.00008444
     185         -1.064565        1.000000        0.00014328        0.00004071        0.00003228
     186         -1.063575        1.000000        0.00003652        0.00004620        0.00002860
     187         -1.062901        1.000000        0.00189075        0.00003572        0.00003470
     188         -1.062274        1.000000        0.00406393        0.00006986        0.00003951
     189         -1.061481        1.000000        0.00413656        0.00082867        0.00001892
     190         -1.061312        1.000000        0.00960337        0.00023039        0.00007770
     191         -1.060592        1.000000        0.00126641        0.00017395        0.00003254
     192         -1.059297        1.000000        0.00917159        0.00096589        0.00010979
     193         -1.058643        1.000000        0.00064191        0.00011671        0.00001110
     194         -1.058262        1.000000        0.00624093        0.00017082        0.00001766
     195         -1.057127        1.000000        0.00148614        0.00001686        0.00001614
     196         -1.056224        1.000000        0.00027929        0.00001717        0.00001339
     197         -1.056050        1.000000        0.00267035        0.00004027        0.00002242
     198         -1.054881        1.000000        0.00016458        0.00002016        0.00000846
     199         -1.054669        1.000000        0.00414344        0.00009834        0.00000767
     200         -1.053605        1.000000        0.00002434        0.00010337        0.00018586
     201         -1.053457        1.000000        0.00002311        0.00009831        0.00005479
     202         -1.052589        1.000000        0.00305734        0.00006829        0.00006220
     203         -1.052089        1.000000        0.00296625        0.00020417        0.00032204
     204         -1.051299        1.000000        0.00134509        0.00002298        0.00007286
     205         -1.050676        1.000000        0.00137580        0.00005148        0.00001209
     206         -1.050307        1.000000        0.00009256        0.00003081        0.00005972
     207         -1.049921        1.000000        0.00074145        0.00001154        0.00002103
     208         -1.049485        1.000000        0.00061031        0.00003745        0.00001193
     209         -1.049126        1.000000        0.00066724        0.00014166        0.00002630
     210         -1.048445        1.000000        0.00075076        0.00004495        0.00001705
     211         -1.048201        1.000000        0.00774309        0.00005436        0.00004308
     212         -1.047911        1.000000        0.01027407        0.00008562        0.00005325
     213         -1.047620        1.000000        0.00510448        0.00017681        0.00000761
     214         -1.046931        1.000000        0.00155680        0.00001292        0.00001070
     215         -1.046733        1.000000        0.00038414        0.00004987        0.00002617
     216         -1.046634        1.000000        0.00041007        0.00002734        0.00001253
     217         -1.045930        1.000000        0.00000908        0.00007329        0.00004815
     218         -1.045069        1.000000        0.00044692        0.00000725        0.00000695
     219         -1.044350        1.000000        0.00065651        0.00004013        0.00000698
     220         -1.043623        1.000000        0.00029818        0.00000820        0.00000560
     221         -1.043421        1.000000        0.00180023        0.00001759        0.00000985
     222         -1.042778        1.000000        0.00827111        0.00013382        0.00011547
     223         -1.042701        1.000000        0.00015694        0.00019623        0.00010339
     224         -1.042424        1.000000        0.00613968        0.00013316        0.00010713
     225         -1.041682        1.000000        0.01046723        0.00018284        0.00003869
     226         -1.041498        1.000000        0.00005937        0.00000267        0.00000160
     227         -1.040837        1.000000        0.01344309        0.00015042        0.00004414
     228         -1.040496        1.000000        0.00573930        0.00006939        0.00001612
     229         -1.040151        1.000000        0.00317973        0.00002950        0.00000884
     230         -1.039686        1.000000        0.00012176        0.00001037        0.00000507
     231         -1.038961        1.000000        0.00962457        0.00015850        0.00003066
     232         -1.038553        1.000000        0.00111584        0.00001868        0.00000056
     233         -1.038476        1.000000        0.00168782        0.00002142        0.00000646
     234         -1.038152        1.000000        0.01302475        0.00017721        0.00004334
     235         -1.038041        1.000000        0.02075005        0.00024818        0.00001609
     236         -1.036855        1.000000        0.00135580        0.00004997        0.00000356
     237         -1.036488        1.000000        0.00457827        0.00006697        0.00001700
     238         -1.036186        1.000000        0.00018628        0.00001164        0.00001635
     239         -1.036068        1.000000        0.02671249        0.00040777        0.00002017
     240         -1.035757        1.000000        0.00766293        0.00006696        0.00001161
     241         -1.035291        1.000000        0.01930328        0.00021173        0.00003871
     242         -1.035048        1.000000        0.00205108        0.00002450        0.00000085
     243         -1.035000        1.000000        0.02532123        0.00022857        0.00003128
     244         -1.034454        1.000000        0.00001276        0.00000578        0.00000499
     245         -1.034219        1.000000        0.00010402        0.00000171        0.00000038
     246         -1.033874        1.000000        0.02230705        0.00027359        0.00003712
     247         -1.033507        1.000000        0.03246294        0.00048564        0.00009131
     248         -1.033219        1.000000        0.00002337        0.00000161        0.00000126
     249         -1.033056        1.000000        0.01542636        0.00024873        0.00005082
     250         -1.032307        1.000000        0.00001324        0.00000687        0.00000179
     251         -1.031324        1.000000        0.00203283        0.00005792        0.00002165
     252         -1.031144        1.000000        0.00552144        0.00015965        0.00004603
     253         -1.030643        1.000000        0.00340836        0.00006194        0.00002026
     254         -1.030284        1.000000        0.00000016        0.00000629        0.00000608
     255         -1.030062        1.000000        0.00032752        0.00000650        0.00000216
     256         -1.029818        1.000000        0.00000307        0.00000320        0.00000034
     257         -1.028552        1.000000        0.00081646        0.00006695        0.00002774
     258         -1.027578        1.000000        0.00013811        0.00001101        0.00000495
     259         -1.027121        1.000000        0.00001495        0.00000592        0.00000318
     260         -1.026880        1.000000        0.00095309        0.00006289        0.00002652
     261         -1.026226        1.000000        0.00016565        0.00000283        0.00000045
     262         -1.025765        1.000000        0.00062736        0.00009406        0.00006458
     263         -1.025299        1.000000        0.00028656        0.00000561        0.00000254
     264         -1.025158        1.000000        0.00022015        0.00000867        0.00000464
     265         -1.025007        1.000000        0.00008107        0.00001506        0.00001113
     266         -1.024422        1.000000        0.00001368        0.00000066        0.00000057
     267         -1.023793        1.000000        0.00008580        0.00037964        0.00034116
     268         -1.023594        1.000000        0.00000588        0.00000413        0.00000382
     269         -1.023069        1.000000        0.00000754        0.00004187        0.00004456
     270         -1.022603        1.000000        0.00000219        0.00001923        0.00001882
     271         -1.022074        1.000000        0.00002135        0.00000097        0.00000108
     272         -1.021695        1.000000        0.00003744        0.00000072        0.00000081
     273         -1.021372        1.000000        0.00019273        0.00015216        0.00017735
     274         -1.021076        1.000000        0.00000059        0.00000049        0.00000052
     275         -1.019492        1.000000        0.00000409        0.00000097        0.00000063
     276         -1.018003        1.000000        0.00003579        0.00000204        0.00000186
     277         -1.016408        1.000000        0.00000083        0.00000002        0.00000002
     278         -1.016278        1.000000        0.00000745        0.00000047        0.00000032
     279         -1.015338        1.000000        0.00004593        0.00000454        0.00000248
     280         -1.013851        1.000000        0.00000463        0.00000009        0.00000013
     281         -1.010223        1.000000        0.00000086        0.00000004        0.00000002
     282         -1.009666        1.000000        0.00021793        0.00001960        0.00001119
     283         -1.007726        1.000000        0.00000535        0.00000038        0.00000009
     284         -1.007300        1.000000        0.00004410        0.00000266        0.00000056
     285         -1.006916        1.000000        0.00002981        0.00000299        0.00000295
     286         -0.889442        1.000000        0.00000000        0.00000000        0.00000000
     287         -0.869424        1.000000        0.00000000        0.00000000        0.00000000
     288         -0.867225        1.000000        0.00000000        0.00000000        0.00000000
     289         -0.864755        1.000000        0.00000000        0.00000000        0.00000000
     290         -0.860947        1.000000        0.00000000        0.00000000        0.00000000
     291         -0.846899        1.000000        0.00000000        0.00000000        0.00000000
     292         -0.844423        1.000000        0.00000000        0.00000000        0.00000000
     293         -0.843782        1.000000        0.00000000        0.00000000        0.00000000
     294         -0.840445        1.000000        0.00000000        0.00000000        0.00000000
     295         -0.821748        1.000000        0.00000000        0.00000000        0.00000000
     296         -0.818927        1.000000        0.00000000        0.00000000        0.00000000
     297         -0.814033        1.000000        0.00000000        0.00000000        0.00000000
     298         -0.808071        1.000000        0.00000000        0.00000000        0.00000000
     299         -0.807076        1.000000        0.00000000        0.00000000        0.00000000
     300         -0.806003        1.000000        0.00000000        0.00000000        0.00000000
     301         -0.805433        1.000000        0.00000000        0.00000000        0.00000000
     302         -0.803208        1.000000        0.00000000        0.00000000        0.00000000
     303         -0.802271        1.000000        0.00000000        0.00000000        0.00000000
     304         -0.801014        1.000000        0.00000000        0.00000000        0.00000000
     305         -0.800419        1.000000        0.00000000        0.00000000        0.00000000
     306         -0.800163        1.000000        0.00000000        0.00000000        0.00000000
     307         -0.798966        1.000000        0.00000000        0.00000000        0.00000000