# Projected DOS for list 331 of 1 atoms, at iteration step i = 0, E(Fermi) =    -0.245567 a.u.
#     MO Eigenvalue [a.u.]      Occupation                 s                 p                 d
       1         -3.122063        1.000000        0.00000036        0.00000524        0.00000058
       2         -3.121278        1.000000        0.00000046        0.00000090        0.00000031
       3         -3.121021        1.000000        0.00000406        0.00002980        0.00000260
       4         -3.120578        1.000000        0.00000555        0.00002499        0.00000368
       5         -3.120271        1.000000        0.00011443        0.00027762        0.00003342
       6         -3.119857        1.000000        0.00000757        0.00001777        0.00000140
       7         -3.119652        1.000000        0.00000901        0.00001307        0.00000104
       8         -3.119624        1.000000        0.00001119        0.00002987        0.00000385
       9         -3.119219        1.000000        0.00011093        0.00028453        0.00003019
      10         -3.119023        1.000000        0.00001550        0.00003693        0.00000362
      11         -3.118913        1.000000        0.00000990        0.00003497        0.00000387
      12         -3.118874        1.000000        0.00001027        0.00004264        0.00000588
      13         -3.118317        1.000000        0.00376626        0.00740658        0.00068778
      14         -3.118249        1.000000        0.00020516        0.00070996        0.00007395
      15         -3.117895        1.000000        0.00000982        0.00009362        0.00001043
      16         -3.117383        1.000000        0.00000163        0.00001498        0.00000227
      17         -3.117165        1.000000        0.00006873        0.00031111        0.00003472
      18         -3.116815        1.000000        0.00003247        0.00019466        0.00002394
      19         -3.116436        1.000000        0.00000481        0.00006259        0.00001014
      20         -3.116021        1.000000        0.00001042        0.00003413        0.00000434
      21         -3.115852        1.000000        0.00016654        0.00020221        0.00000774
      22         -3.115668        1.000000        0.00268437        0.00757517        0.00085717
      23         -3.115368        1.000000        0.00001532        0.00007837        0.00001214
      24         -3.115339        1.000000        0.00012371        0.00023586        0.00002645
      25         -3.115041        1.000000        0.00025778        0.00065234        0.00002976
      26         -3.114366        1.000000        0.00004828        0.00116366        0.00021769
      27         -3.113951        1.000000        0.00000592        0.00001550        0.00000157
      28         -3.113764        1.000000        0.00080893        0.00392971        0.00047476
      29         -3.112534        1.000000        0.00000428        0.00013372        0.00001577
      30         -3.111679        1.000000        0.00001229        0.00008532        0.00001132
      31         -1.784233        1.000000        0.00022667        0.00058335        0.00005768
      32         -1.782870        1.000000        0.00007177        0.00021495        0.00003777
      33         -1.782324        1.000000        0.00004234        0.00012519        0.00001734
      34         -1.782130        1.000000        0.00013833        0.00034797        0.00003496
      35         -1.781736        1.000000        0.00000002        0.00003749        0.00001477
      36         -1.781230        1.000000        0.00005066        0.00015497        0.00001983
      37         -1.780847        1.000000        0.00006232        0.00025884        0.00005899
      38         -1.780487        1.000000        0.00003152        0.00010289        0.00003023
      39         -1.780184        1.000000        0.00023357        0.00055839        0.00005418
      40         -1.779550        1.000000        0.00002601        0.00027989        0.00009235
      41         -1.779259        1.000000        0.00020759        0.00055037        0.00004737
      42         -1.778921        1.000000        0.00012125        0.00035482        0.00006145
      43         -1.778390        1.000000        0.00081891        0.00186763        0.00008104
      44         -1.778140        1.000000        0.00000547        0.00007817        0.00003034
      45         -1.777912        1.000000        0.00002299        0.00005889        0.00000342
      46         -1.777514        1.000000        0.00020439        0.00057072        0.00008156
      47         -1.777362        1.000000        0.00007720        0.00020523        0.00004232
      48         -1.776787        1.000000        0.00027454        0.00068407        0.00004638
      49         -1.776537        1.000000        0.00004734        0.00039820        0.00012785
      50         -1.776457        1.000000        0.00010745        0.00055014        0.00018172
      51         -1.776029        1.000000        0.00010561        0.00026864        0.00004104
      52         -1.774038        1.000000        0.00003102        0.00014409        0.00005221
      53         -1.773797        1.000000        0.00009066        0.00022399        0.00005367
      54         -1.773665        1.000000        0.00000053        0.00012728        0.00006940
      55         -1.772725        1.000000        0.00005592        0.00017451        0.00004888
      56         -1.772546        1.000000        0.00000000        0.00000269        0.00000136
      57         -1.772041        1.000000        0.00000216        0.00001484        0.00000765
      58         -1.771662        1.000000        0.00025609        0.00048349        0.00009167
      59         -1.771364        1.000000        0.00000017        0.00012154        0.00005120
      60         -1.770813        1.000000        0.00031771        0.00053959        0.00004951
      61         -1.770640        1.000000        0.00026544        0.00086391        0.00022374
      62         -1.770449        1.000000        0.00035180        0.00125709        0.00034775
      63         -1.770188        1.000000        0.00000884        0.00018078        0.00008555
      64         -1.770126        1.000000        0.00007372        0.00013638        0.00002707
      65         -1.769991        1.000000        0.00000183        0.00008266        0.00003885
      66         -1.769845        1.000000        0.00000120        0.00008338        0.00005357
      67         -1.769763        1.000000        0.00006143        0.00031527        0.00009862
      68         -1.769661        1.000000        0.00000936        0.00013574        0.00004366
      69         -1.769465        1.000000        0.00005061        0.00010054        0.00001393
      70         -1.769351        1.000000        0.00000926        0.00019063        0.00007757
      71         -1.769328        1.000000        0.00004507        0.00020578        0.00005040
      72         -1.769216        1.000000        0.00002557        0.00008940        0.00003716
      73         -1.769129        1.000000        0.00000028        0.00008420        0.00003598
      74         -1.769070        1.000000        0.00000050        0.00020905        0.00011022
      75         -1.768941        1.000000        0.00000136        0.00005494        0.00001795
      76         -1.768822        1.000000        0.00000161        0.00007969        0.00005535
      77         -1.768707        1.000000        0.00009893        0.00047316        0.00014877
      78         -1.768585        1.000000        0.00006329        0.00053203        0.00020753
      79         -1.768439        1.000000        0.00001021        0.00035055        0.00015937
      80         -1.768329        1.000000        0.00003230        0.00005275        0.00000668
      81         -1.768089        1.000000        0.00008161        0.00061442        0.00018417
      82         -1.767883        1.000000        0.00001639        0.00011334        0.00003025
      83         -1.767662        1.000000        0.00001263        0.00002250        0.00000094
      84         -1.767495        1.000000        0.00010571        0.00040429        0.00008328
      85         -1.767311        1.000000        0.00004962        0.00033516        0.00007639
      86         -1.767266        1.000000        0.00005292        0.00032380        0.00017608
      87         -1.767060        1.000000        0.00017090        0.00029140        0.00001137
      88         -1.767025        1.000000        0.00003106        0.00075059        0.00026863
      89         -1.766872        1.000000        0.00005087        0.00011637        0.00001182
      90         -1.766524        1.000000        0.00007458        0.00018206        0.00005046
      91         -1.766405        1.000000        0.00001658        0.00013343        0.00007203
      92         -1.766254        1.000000        0.00000522        0.00039285        0.00017569
      93         -1.766123        1.000000        0.00000064        0.00018806        0.00005488
      94         -1.765857        1.000000        0.00002058        0.00043056        0.00016909
      95         -1.765515        1.000000        0.00001795        0.00124288        0.00059628
      96         -1.765181        1.000000        0.00003705        0.00020921        0.00006345
      97         -1.765105        1.000000        0.00003909        0.00044136        0.00017611
      98         -1.764967        1.000000        0.00002547        0.00025190        0.00006655
      99         -1.764710        1.000000        0.00001158        0.00005424        0.00002474
     100         -1.764440        1.000000        0.00010277        0.00070116        0.00024294
     101         -1.764248        1.000000        0.00000617        0.00019518        0.00009800
     102         -1.763945        1.000000        0.00002674        0.00021625        0.00007160
     103         -1.763804        1.000000        0.00000489        0.00009571        0.00005789
     104         -1.763351        1.000000        0.00008488        0.00031328        0.00009326
     105         -1.763205        1.000000        0.00006849        0.00038518        0.00011780
     106         -1.763107        1.000000        0.00000167        0.00013283        0.00013366
     107         -1.762531        1.000000        0.00005032        0.00022346        0.00012627
     108         -1.762343        1.000000        0.00005129        0.00015264        0.00003910
     109         -1.761453        1.000000        0.00000179        0.00005934        0.00004759
     110         -1.760969        1.000000        0.00000114        0.00013816        0.00016173
     111         -1.760481        1.000000        0.00000784        0.00015132        0.00006373
     112         -1.760009        1.000000        0.00007178        0.00039088        0.00009441
     113         -1.759531        1.000000        0.00005101        0.00021585        0.00005311
     114         -1.759105        1.000000        0.00006054        0.00034684        0.00013416
     115         -1.758777        1.000000        0.00000648        0.00004909        0.00001304
     116         -1.757462        1.000000        0.00000016        0.00006803        0.00002190
     117         -1.756221        1.000000        0.00000589        0.00044039        0.00020867
     118         -1.755333        1.000000        0.00000112        0.00029816        0.00012875
     119         -1.754385        1.000000        0.00000131        0.00006761        0.00010789
     120         -1.752742        1.000000        0.00000194        0.00033923        0.00024504
     121         -1.131181        1.000000        0.00000013        0.00000015        0.00000001
     122         -1.128658        1.000000        0.00000000        0.00000001        0.00000000
     123         -1.128000        1.000000        0.00000005        0.00000004        0.00000000
     124         -1.126427        1.000000        0.00000000        0.00000000        0.00000000
     125         -1.120469        1.000000        0.00000005        0.00000006        0.00000000
     126         -1.119202        1.000000        0.00000001        0.00000001        0.00000000
     127         -1.117081        1.000000        0.00000008        0.00000009        0.00000000
     128         -1.116156        1.000000        0.00000019        0.00000021        0.00000001
     129         -1.115054        1.000000        0.00000085        0.00000109        0.00000005
     130         -1.111818        1.000000        0.00000003        0.00000004        0.00000000
     131         -1.111610        1.000000        0.00000005        0.00000001        0.00000000
     132         -1.110976        1.000000        0.00000006        0.00000004        0.00000000
     133         -1.109888        1.000000        0.00000013        0.00000008        0.00000000
     134         -1.108601        1.000000        0.00000001        0.00000001        0.00000000
     135         -1.108036        1.000000        0.00000011        0.00000011        0.00000001
     136         -1.107349        1.000000        0.00000011        0.00000017        0.00000001
     137         -1.106797        1.000000        0.00000009        0.00000014        0.00000001
     138         -1.106077        1.000000        0.00000014        0.00000026        0.00000002
     139         -1.104162        1.000000        0.00000005        0.00000006        0.00000001
     140         -1.102892        1.000000        0.00000009        0.00000011        0.00000001
     141         -1.102196        1.000000        0.00000012        0.00000019        0.00000001
     142         -1.101581        1.000000        0.00000003        0.00000005        0.00000001
     143         -1.101215        1.000000        0.00000004        0.00000013        0.00000001
     144         -1.099602        1.000000        0.00000004        0.00000008        0.00000001
     145         -1.098107        1.000000        0.00000004        0.00000006        0.00000001
     146         -1.097450        1.000000        0.00000003        0.00000006        0.00000000
     147         -1.097046        1.000000        0.00000002        0.00000001        0.00000000
     148         -1.095795        1.000000        0.00000000        0.00000002        0.00000000
     149         -1.095192        1.000000        0.00000000        0.00000000        0.00000000
     150         -1.093515        1.000000        0.00000000        0.00000001        0.00000000
     151         -1.093123        1.000000        0.00000010        0.00000007        0.00000001
     152         -1.092614        1.000000        0.00000004        0.00000004        0.00000001
     153         -1.091821        1.000000        0.00000001        0.00000001        0.00000000
     154         -1.090761        1.000000        0.00000003        0.00000010        0.00000002
     155         -1.090597        1.000000        0.00000007        0.00000012        0.00000001
     156         -1.089544        1.000000        0.00000007        0.00000008        0.00000000
     157         -1.088154        1.000000        0.00000005        0.00000005        0.00000001
     158         -1.086960        1.000000        0.00000002        0.00000001        0.00000000
     159         -1.086718        1.000000        0.00000001        0.00000009        0.00000001
     160         -1.085525        1.000000        0.00000000        0.00000007        0.00000001
     161         -1.084219        1.000000        0.00000001        0.00000002        0.00000000
     162         -1.082734        1.000000        0.00000001        0.00000002        0.00000000
     163         -1.082381        1.000000        0.00000001        0.00000002        0.00000000
     164         -1.080807        1.000000        0.00000002        0.00000004        0.00000001
     165         -1.080293        1.000000        0.00000001        0.00000002        0.00000000
     166         -1.079453        1.000000        0.00000007        0.00000003        0.00000004
     167         -1.078246        1.000000        0.00000000        0.00000000        0.00000000
     168         -1.077774        1.000000        0.00000004        0.00000007        0.00000001
     169         -1.077143        1.000000        0.00000004        0.00000006        0.00000002
     170         -1.076426        1.000000        0.00000000        0.00000000        0.00000000
     171         -1.076145        1.000000        0.00000004        0.00000016        0.00000004
     172         -1.074526        1.000000        0.00000000        0.00000000        0.00000000
     173         -1.074368        1.000000        0.00000002        0.00000010        0.00000001
     174         -1.073652        1.000000        0.00000011        0.00000005        0.00000006
     175         -1.072808        1.000000        0.00000003        0.00000005        0.00000002
     176         -1.072152        1.000000        0.00000013        0.00000060        0.00000006
     177         -1.071192        1.000000        0.00000008        0.00000039        0.00000003
     178         -1.070444        1.000000        0.00000023        0.00000063        0.00000015
     179         -1.070141        1.000000        0.00000025        0.00000038        0.00000008
     180         -1.069416        1.000000        0.00000003        0.00000006        0.00000001
     181         -1.069179        1.000000        0.00000005        0.00000046        0.00000007
     182         -1.067610        1.000000        0.00000013        0.00000015        0.00000002
     183         -1.066240        1.000000        0.00000040        0.00000128        0.00000011
     184         -1.065124        1.000000        0.00000003        0.00000037        0.00000005
     185         -1.064565        1.000000        0.00000034        0.00000126        0.00000008
     186         -1.063575        1.000000        0.00000011        0.00000011        0.00000004
     187         -1.062901        1.000000        0.00000005        0.00000074        0.00000013
     188         -1.062274        1.000000        0.00000001        0.00000001        0.00000001
     189         -1.061481        1.000000        0.00000018        0.00000046        0.00000004
     190         -1.061312        1.000000        0.00000001        0.00000001        0.00000001
     191         -1.060592        1.000000        0.00000030        0.00000100        0.00000009
     192         -1.059297        1.000000        0.00000013        0.00000086        0.00000011
     193         -1.058643        1.000000        0.00000001        0.00000004        0.00000001
     194         -1.058262        1.000000        0.00000027        0.00000252        0.00000042
     195         -1.057127        1.000000        0.00000019        0.00000320        0.00000053
     196         -1.056224        1.000000        0.00000027        0.00000384        0.00000078
     197         -1.056050        1.000000        0.00000002        0.00000045        0.00000011
     198         -1.054881        1.000000        0.00000006        0.00000236        0.00000057
     199         -1.054669        1.000000        0.00000002        0.00000007        0.00000001
     200         -1.053605        1.000000        0.00000001        0.00000038        0.00000010
     201         -1.053457        1.000000        0.00000001        0.00000053        0.00000015
     202         -1.052589        1.000000        0.00000001        0.00000002        0.00000001
     203         -1.052089        1.000000        0.00000004        0.00000025        0.00000010
     204         -1.051299        1.000000        0.00000000        0.00000005        0.00000002
     205         -1.050676        1.000000        0.00000002        0.00000003        0.00000000
     206         -1.050307        1.000000        0.00000014        0.00000019        0.00000003
     207         -1.049921        1.000000        0.00000001        0.00000001        0.00000000
     208         -1.049485        1.000000        0.00000001        0.00000020        0.00000007
     209         -1.049126        1.000000        0.00000002        0.00000009        0.00000003
     210         -1.048445        1.000000        0.00000003        0.00000002        0.00000001
     211         -1.048201        1.000000        0.00000000        0.00000001        0.00000000
     212         -1.047911        1.000000        0.00000015        0.00000014        0.00000006
     213         -1.047620        1.000000        0.00000007        0.00000015        0.00000001
     214         -1.046931        1.000000        0.00000006        0.00000010        0.00000000
     215         -1.046733        1.000000        0.00000015        0.00000031        0.00000001
     216         -1.046634        1.000000        0.00000017        0.00000031        0.00000002
     217         -1.045930        1.000000        0.00000003        0.00000007        0.00000000
     218         -1.045069        1.000000        0.00000010        0.00000049        0.00000004
     219         -1.044350        1.000000        0.00000001        0.00000003        0.00000000
     220         -1.043623        1.000000        0.00000021        0.00000027        0.00000001
     221         -1.043421        1.000000        0.00000003        0.00000075        0.00000022
     222         -1.042778        1.000000        0.00000001        0.00000003        0.00000000
     223         -1.042701        1.000000        0.00000000        0.00000001        0.00000000
     224         -1.042424        1.000000        0.00000000        0.00000001        0.00000000
     225         -1.041682        1.000000        0.00000000        0.00000004        0.00000001
     226         -1.041498        1.000000        0.00000000        0.00000016        0.00000002
     227         -1.040837        1.000000        0.00000003        0.00000007        0.00000001
     228         -1.040496        1.000000        0.00000001        0.00000001        0.00000000
     229         -1.040151        1.000000        0.00000000        0.00000007        0.00000000
     230         -1.039686        1.000000        0.00000001        0.00000003        0.00000000
     231         -1.038961        1.000000        0.00000002        0.00000002        0.00000000
     232         -1.038553        1.000000        0.00000001        0.00000008        0.00000001
     233         -1.038476        1.000000        0.00000002        0.00000006        0.00000000
     234         -1.038152        1.000000        0.00000000        0.00000000        0.00000000
     235         -1.038041        1.000000        0.00000001        0.00000001        0.00000000
     236         -1.036855        1.000000        0.00000000        0.00000003        0.00000001
     237         -1.036488        1.000000        0.00000000        0.00000012        0.00000002
     238         -1.036186        1.000000        0.00000000        0.00000000        0.00000000
     239         -1.036068        1.000000        0.00000000        0.00000000        0.00000000
     240         -1.035757        1.000000        0.00000000        0.00000010        0.00000002
     241         -1.035291        1.000000        0.00000001        0.00000007        0.00000001
     242         -1.035048        1.000000        0.00000002        0.00000015        0.00000001
     243         -1.035000        1.000000        0.00000001        0.00000004        0.00000000
     244         -1.034454        1.000000        0.00000000        0.00000005        0.00000001
     245         -1.034219        1.000000        0.00000000        0.00000003        0.00000001
     246         -1.033874        1.000000        0.00000002        0.00000034        0.00000004
     247         -1.033507        1.000000        0.00000000        0.00000002        0.00000000
     248         -1.033219        1.000000        0.00000000        0.00000011        0.00000002
     249         -1.033056        1.000000        0.00000000        0.00000011        0.00000001
     250         -1.032307        1.000000        0.00000003        0.00000024        0.00000002
     251         -1.031324        1.000000        0.00000019        0.00000114        0.00000007
     252         -1.031144        1.000000        0.00000004        0.00000021        0.00000001
     253         -1.030643        1.000000        0.00000001        0.00000002        0.00000000
     254         -1.030284        1.000000        0.00000000        0.00000015        0.00000002
     255         -1.030062        1.000000        0.00000001        0.00000017        0.00000001
     256         -1.029818        1.000000        0.00000008        0.00000023        0.00000001
     257         -1.028552        1.000000        0.00000000        0.00000001        0.00000000
     258         -1.027578        1.000000        0.00000000        0.00000003        0.00000001
     259         -1.027121        1.000000        0.00000000        0.00000002        0.00000000
     260         -1.026880        1.000000        0.00000000        0.00000005        0.00000001
     261         -1.026226        1.000000        0.00000002        0.00000011        0.00000001
     262         -1.025765        1.000000        0.00000000        0.00000001        0.00000000
     263         -1.025299        1.000000        0.00000000        0.00000000        0.00000000
     264         -1.025158        1.000000        0.00000001        0.00000004        0.00000001
     265         -1.025007        1.000000        0.00000002        0.00000005        0.00000000
     266         -1.024422        1.000000        0.00000005        0.00000017        0.00000001
     267         -1.023793        1.000000        0.00000000        0.00000000        0.00000000
     268         -1.023594        1.000000        0.00000032        0.00000035        0.00000002
     269         -1.023069        1.000000        0.00000000        0.00000001        0.00000000
     270         -1.022603        1.000000        0.00000000        0.00000001        0.00000000
     271         -1.022074        1.000000        0.00000007        0.00000008        0.00000000
     272         -1.021695        1.000000        0.00000000        0.00000001        0.00000000
     273         -1.021372        1.000000        0.00000000        0.00000001        0.00000000
     274         -1.021076        1.000000        0.00000053        0.00000086        0.00000000
     275         -1.019492        1.000000        0.00000000        0.00000002        0.00000000
     276         -1.018003        1.000000        0.00000000        0.00000000        0.00000000
     277         -1.016408        1.000000        0.00000040        0.00000093        0.00000000
     278         -1.016278        1.000000        0.00000004        0.00000009        0.00000000
     279         -1.015338        1.000000        0.00000000        0.00000000        0.00000000
     280         -1.013851        1.000000        0.00000000        0.00000001        0.00000000
     281         -1.010223        1.000000        0.00000000        0.00000000        0.00000000
     282         -1.009666        1.000000        0.00000000        0.00000000        0.00000000
     283         -1.007726        1.000000        0.00000001        0.00000003        0.00000000
     284         -1.007300        1.000000        0.00000000        0.00000000        0.00000000
     285         -1.006916        1.000000        0.00000000        0.00000000        0.00000000
     286         -0.889442        1.000000        0.00971112        0.00055338        0.00001032
     287         -0.869424        1.000000        0.00087747        0.00070730        0.00002845
     288         -0.867225        1.000000        0.01552682        0.00072071        0.00003262
     289         -0.864755        1.000000        0.00000187        0.00185401        0.00003283
     290         -0.860947        1.000000        0.01528921        0.00103689        0.00003189
     291         -0.846899        1.000000        0.00050378        0.00073949        0.00006668
     292         -0.844423        1.000000        0.00520825        0.00086471        0.00002378
     293         -0.843782        1.000000        0.00126195        0.00096793        0.00001957
     294         -0.840445        1.000000        0.01847577        0.00100517        0.00003081
     295         -0.821748        1.000000        0.00628866        0.00088958        0.00002294
     296         -0.818927        1.000000        0.00338304        0.00036195        0.00018160
     297         -0.814033        1.000000        0.01777559        0.00050583        0.00016865
     298         -0.808071        1.000000        0.01209570        0.00075771        0.00009953
     299         -0.807076        1.000000        0.00036035        0.00034663        0.00004494
     300         -0.806003        1.000000        0.01571705        0.00023161        0.00000882
     301         -0.805433        1.000000        0.00292090        0.00066313        0.00010430
     302         -0.803208        1.000000        0.00089256        0.00058557        0.00003386
     303         -0.802271        1.000000        0.00427409        0.00106823        0.00003867
     304         -0.801014        1.000000        0.01023940        0.00149162        0.00011107
     305         -0.800419        1.000000        0.00372083        0.00036863        0.00009130
     306         -0.800163        1.000000        0.01478431        0.00069768        0.00006701
     307         -0.798966        1.000000        0.00222884        0.00120358        0.00001696