# Projected DOS for list 245 of 1 atoms, at iteration step i = 0, E(Fermi) =    -0.245567 a.u.
#     MO Eigenvalue [a.u.]      Occupation                 s                 p                 d
       1         -3.122063        1.000000        0.00384769        0.00734904        0.00036213
       2         -3.121278        1.000000        0.00000058        0.00039791        0.00006987
       3         -3.121021        1.000000        0.00063954        0.00433204        0.00060440
       4         -3.120578        1.000000        0.00006680        0.00023650        0.00000995
       5         -3.120271        1.000000        0.00006666        0.00032007        0.00004642
       6         -3.119857        1.000000        0.00000259        0.00002322        0.00000202
       7         -3.119652        1.000000        0.00000047        0.00000626        0.00000165
       8         -3.119624        1.000000        0.00000066        0.00002192        0.00000708
       9         -3.119219        1.000000        0.00000637        0.00001653        0.00000344
      10         -3.119023        1.000000        0.00001099        0.00017890        0.00001625
      11         -3.118913        1.000000        0.00001289        0.00007458        0.00000656
      12         -3.118874        1.000000        0.00000204        0.00000367        0.00000136
      13         -3.118317        1.000000        0.00000119        0.00001643        0.00000166
      14         -3.118249        1.000000        0.00007071        0.00008194        0.00002267
      15         -3.117895        1.000000        0.00002256        0.00002007        0.00000304
      16         -3.117383        1.000000        0.00000607        0.00005595        0.00000770
      17         -3.117165        1.000000        0.00000583        0.00000527        0.00000100
      18         -3.116815        1.000000        0.00000336        0.00002817        0.00000289
      19         -3.116436        1.000000        0.00001906        0.00004603        0.00000941
      20         -3.116021        1.000000        0.00074268        0.00201070        0.00023666
      21         -3.115852        1.000000        0.00001677        0.00003708        0.00000473
      22         -3.115668        1.000000        0.00000116        0.00000691        0.00000062
      23         -3.115368        1.000000        0.00067048        0.00266002        0.00026769
      24         -3.115339        1.000000        0.00006484        0.00020852        0.00002144
      25         -3.115041        1.000000        0.00000379        0.00001601        0.00000171
      26         -3.114366        1.000000        0.00003694        0.00013633        0.00001483
      27         -3.113951        1.000000        0.00000000        0.00000016        0.00000002
      28         -3.113764        1.000000        0.00000098        0.00001426        0.00000177
      29         -3.112534        1.000000        0.00000000        0.00000001        0.00000000
      30         -3.111679        1.000000        0.00000038        0.00004729        0.00000622
      31         -1.784233        1.000000        0.00003303        0.00010147        0.00001159
      32         -1.782870        1.000000        0.00000054        0.00002141        0.00001279
      33         -1.782324        1.000000        0.00012905        0.00038957        0.00002315
      34         -1.782130        1.000000        0.00001370        0.00007054        0.00001407
      35         -1.781736        1.000000        0.00025822        0.00085073        0.00010736
      36         -1.781230        1.000000        0.00001410        0.00018204        0.00007830
      37         -1.780847        1.000000        0.00003997        0.00014873        0.00002544
      38         -1.780487        1.000000        0.00004574        0.00015239        0.00001862
      39         -1.780184        1.000000        0.00020191        0.00062446        0.00005892
      40         -1.779550        1.000000        0.00011357        0.00028318        0.00001312
      41         -1.779259        1.000000        0.00000223        0.00006104        0.00001883
      42         -1.778921        1.000000        0.00004317        0.00010748        0.00000681
      43         -1.778390        1.000000        0.00023320        0.00057690        0.00003012
      44         -1.778140        1.000000        0.00020442        0.00054856        0.00004666
      45         -1.777912        1.000000        0.00000095        0.00008379        0.00004343
      46         -1.777514        1.000000        0.00000291        0.00008527        0.00002591
      47         -1.777362        1.000000        0.00031131        0.00080801        0.00004244
      48         -1.776787        1.000000        0.00001443        0.00004753        0.00000540
      49         -1.776537        1.000000        0.00013922        0.00037728        0.00002133
      50         -1.776457        1.000000        0.00000373        0.00004050        0.00001224
      51         -1.776029        1.000000        0.00003662        0.00029061        0.00009499
      52         -1.774038        1.000000        0.00014322        0.00042204        0.00008296
      53         -1.773797        1.000000        0.00009088        0.00025960        0.00004812
      54         -1.773665        1.000000        0.00010380        0.00027054        0.00001935
      55         -1.772725        1.000000        0.00011511        0.00033731        0.00004909
      56         -1.772546        1.000000        0.00026788        0.00067286        0.00006113
      57         -1.772041        1.000000        0.00043054        0.00099153        0.00006345
      58         -1.771662        1.000000        0.00032788        0.00089732        0.00009548
      59         -1.771364        1.000000        0.00007868        0.00039538        0.00010222
      60         -1.770813        1.000000        0.00008353        0.00014661        0.00000152
      61         -1.770640        1.000000        0.00009328        0.00054762        0.00018431
      62         -1.770449        1.000000        0.00005111        0.00013005        0.00002034
      63         -1.770188        1.000000        0.00000325        0.00008705        0.00004145
      64         -1.770126        1.000000        0.00003005        0.00006325        0.00000465
      65         -1.769991        1.000000        0.00001142        0.00008569        0.00003673
      66         -1.769845        1.000000        0.00000491        0.00032454        0.00013581
      67         -1.769763        1.000000        0.00000065        0.00023148        0.00010237
      68         -1.769661        1.000000        0.00000207        0.00007762        0.00003541
      69         -1.769465        1.000000        0.00004161        0.00013523        0.00002855
      70         -1.769351        1.000000        0.00000039        0.00057649        0.00018854
      71         -1.769328        1.000000        0.00002234        0.00036668        0.00013918
      72         -1.769216        1.000000        0.00011220        0.00032726        0.00004356
      73         -1.769129        1.000000        0.00001458        0.00037335        0.00016257
      74         -1.769070        1.000000        0.00002859        0.00014368        0.00003764
      75         -1.768941        1.000000        0.00002461        0.00063584        0.00025739
      76         -1.768822        1.000000        0.00000017        0.00076117        0.00031268
      77         -1.768707        1.000000        0.00001130        0.00012820        0.00004665
      78         -1.768585        1.000000        0.00000334        0.00009118        0.00005785
      79         -1.768439        1.000000        0.00000230        0.00005014        0.00001267
      80         -1.768329        1.000000        0.00006027        0.00035464        0.00009460
      81         -1.768089        1.000000        0.00001222        0.00004291        0.00000544
      82         -1.767883        1.000000        0.00000070        0.00012557        0.00004214
      83         -1.767662        1.000000        0.00004824        0.00072990        0.00025372
      84         -1.767495        1.000000        0.00000007        0.00020967        0.00009922
      85         -1.767311        1.000000        0.00001265        0.00011793        0.00003811
      86         -1.767266        1.000000        0.00000012        0.00001326        0.00001181
      87         -1.767060        1.000000        0.00000327        0.00030198        0.00013241
      88         -1.767025        1.000000        0.00002021        0.00016283        0.00006870
      89         -1.766872        1.000000        0.00003532        0.00017701        0.00006555
      90         -1.766524        1.000000        0.00006573        0.00040145        0.00013615
      91         -1.766405        1.000000        0.00001181        0.00004466        0.00001247
      92         -1.766254        1.000000        0.00003872        0.00031166        0.00008288
      93         -1.766123        1.000000        0.00005584        0.00015828        0.00003878
      94         -1.765857        1.000000        0.00021433        0.00041961        0.00002113
      95         -1.765515        1.000000        0.00000158        0.00004871        0.00001982
      96         -1.765181        1.000000        0.00000472        0.00022090        0.00010829
      97         -1.765105        1.000000        0.00000148        0.00023045        0.00011048
      98         -1.764967        1.000000        0.00002001        0.00010338        0.00004068
      99         -1.764710        1.000000        0.00006124        0.00013147        0.00000793
     100         -1.764440        1.000000        0.00001837        0.00002343        0.00000107
     101         -1.764248        1.000000        0.00000262        0.00019566        0.00009196
     102         -1.763945        1.000000        0.00000437        0.00001149        0.00001176
     103         -1.763804        1.000000        0.00000329        0.00009410        0.00003380
     104         -1.763351        1.000000        0.00000980        0.00021735        0.00006408
     105         -1.763205        1.000000        0.00000059        0.00001268        0.00002401
     106         -1.763107        1.000000        0.00001644        0.00007022        0.00005629
     107         -1.762531        1.000000        0.00000130        0.00004430        0.00001925
     108         -1.762343        1.000000        0.00000467        0.00006441        0.00003182
     109         -1.761453        1.000000        0.00001300        0.00012990        0.00005863
     110         -1.760969        1.000000        0.00000423        0.00002833        0.00002138
     111         -1.760481        1.000000        0.00000208        0.00004223        0.00002480
     112         -1.760009        1.000000        0.00000434        0.00002859        0.00001243
     113         -1.759531        1.000000        0.00000660        0.00021685        0.00008973
     114         -1.759105        1.000000        0.00000582        0.00000966        0.00000085
     115         -1.758777        1.000000        0.00000003        0.00029950        0.00013453
     116         -1.757462        1.000000        0.00000004        0.00032133        0.00012491
     117         -1.756221        1.000000        0.00000024        0.00000150        0.00001300
     118         -1.755333        1.000000        0.00000058        0.00002317        0.00004766
     119         -1.754385        1.000000        0.00000014        0.00000689        0.00000210
     120         -1.752742        1.000000        0.00000030        0.00000139        0.00000189
     121         -1.131181        1.000000        0.00000023        0.00000024        0.00000001
     122         -1.128658        1.000000        0.00000028        0.00000030        0.00000001
     123         -1.128000        1.000000        0.00000033        0.00000034        0.00000001
     124         -1.126427        1.000000        0.00000003        0.00000004        0.00000000
     125         -1.120469        1.000000        0.00000021        0.00000045        0.00000003
     126         -1.119202        1.000000        0.00000025        0.00000057        0.00000003
     127         -1.117081        1.000000        0.00000012        0.00000046        0.00000003
     128         -1.116156        1.000000        0.00000088        0.00000200        0.00000013
     129         -1.115054        1.000000        0.00000005        0.00000002        0.00000000
     130         -1.111818        1.000000        0.00000003        0.00000020        0.00000002
     131         -1.111610        1.000000        0.00000004        0.00000008        0.00000000
     132         -1.110976        1.000000        0.00000014        0.00000015        0.00000001
     133         -1.109888        1.000000        0.00000008        0.00000002        0.00000000
     134         -1.108601        1.000000        0.00000003        0.00000011        0.00000001
     135         -1.108036        1.000000        0.00000007        0.00000001        0.00000000
     136         -1.107349        1.000000        0.00000061        0.00000068        0.00000004
     137         -1.106797        1.000000        0.00000010        0.00000020        0.00000002
     138         -1.106077        1.000000        0.00000009        0.00000018        0.00000001
     139         -1.104162        1.000000        0.00000002        0.00000039        0.00000002
     140         -1.102892        1.000000        0.00000048        0.00000099        0.00000005
     141         -1.102196        1.000000        0.00000000        0.00000004        0.00000000
     142         -1.101581        1.000000        0.00000009        0.00000033        0.00000002
     143         -1.101215        1.000000        0.00000005        0.00000001        0.00000000
     144         -1.099602        1.000000        0.00000076        0.00000099        0.00000007
     145         -1.098107        1.000000        0.00000039        0.00000089        0.00000004
     146         -1.097450        1.000000        0.00000024        0.00000084        0.00000004
     147         -1.097046        1.000000        0.00000004        0.00000003        0.00000000
     148         -1.095795        1.000000        0.00000038        0.00000017        0.00000001
     149         -1.095192        1.000000        0.00000016        0.00000028        0.00000003
     150         -1.093515        1.000000        0.00000045        0.00000048        0.00000003
     151         -1.093123        1.000000        0.00000004        0.00000004        0.00000000
     152         -1.092614        1.000000        0.00000010        0.00000033        0.00000004
     153         -1.091821        1.000000        0.00000020        0.00000014        0.00000001
     154         -1.090761        1.000000        0.00000036        0.00000014        0.00000003
     155         -1.090597        1.000000        0.00000078        0.00000612        0.00000035
     156         -1.089544        1.000000        0.00000102        0.00000069        0.00000019
     157         -1.088154        1.000000        0.00000004        0.00000080        0.00000004
     158         -1.086960        1.000000        0.00000015        0.00000030        0.00000004
     159         -1.086718        1.000000        0.00000006        0.00000044        0.00000003
     160         -1.085525        1.000000        0.00000032        0.00000018        0.00000005
     161         -1.084219        1.000000        0.00000002        0.00000018        0.00000003
     162         -1.082734        1.000000        0.00000009        0.00000079        0.00000005
     163         -1.082381        1.000000        0.00000033        0.00000353        0.00000018
     164         -1.080807        1.000000        0.00000007        0.00000040        0.00000004
     165         -1.080293        1.000000        0.00000036        0.00000138        0.00000007
     166         -1.079453        1.000000        0.00000006        0.00000011        0.00000002
     167         -1.078246        1.000000        0.00000005        0.00000040        0.00000002
     168         -1.077774        1.000000        0.00000082        0.00000072        0.00000007
     169         -1.077143        1.000000        0.00000056        0.00000076        0.00000009
     170         -1.076426        1.000000        0.00000027        0.00000046        0.00000005
     171         -1.076145        1.000000        0.00000029        0.00000042        0.00000001
     172         -1.074526        1.000000        0.00000215        0.00000382        0.00000007
     173         -1.074368        1.000000        0.00000182        0.00000192        0.00000013
     174         -1.073652        1.000000        0.00000010        0.00000064        0.00000007
     175         -1.072808        1.000000        0.00000019        0.00000054        0.00000002
     176         -1.072152        1.000000        0.00000005        0.00000012        0.00000000
     177         -1.071192        1.000000        0.00000001        0.00000023        0.00000003
     178         -1.070444        1.000000        0.00000019        0.00000078        0.00000008
     179         -1.070141        1.000000        0.00000000        0.00000008        0.00000002
     180         -1.069416        1.000000        0.00000082        0.00000392        0.00000037
     181         -1.069179        1.000000        0.00000037        0.00000045        0.00000001
     182         -1.067610        1.000000        0.00000038        0.00000146        0.00000013
     183         -1.066240        1.000000        0.00000083        0.00000327        0.00000034
     184         -1.065124        1.000000        0.00000087        0.00000151        0.00000015
     185         -1.064565        1.000000        0.00000017        0.00000107        0.00000010
     186         -1.063575        1.000000        0.00000003        0.00000015        0.00000003
     187         -1.062901        1.000000        0.00000012        0.00000017        0.00000001
     188         -1.062274        1.000000        0.00000054        0.00000113        0.00000011
     189         -1.061481        1.000000        0.00000084        0.00000375        0.00000026
     190         -1.061312        1.000000        0.00000215        0.00000660        0.00000060
     191         -1.060592        1.000000        0.00000020        0.00000039        0.00000005
     192         -1.059297        1.000000        0.00000010        0.00000019        0.00000001
     193         -1.058643        1.000000        0.00000055        0.00000186        0.00000018
     194         -1.058262        1.000000        0.00000919        0.00003569        0.00000304
     195         -1.057127        1.000000        0.00000266        0.00000744        0.00000079
     196         -1.056224        1.000000        0.00001116        0.00004900        0.00000375
     197         -1.056050        1.000000        0.00000168        0.00001030        0.00000052
     198         -1.054881        1.000000        0.00000013        0.00000088        0.00000003
     199         -1.054669        1.000000        0.00000032        0.00000108        0.00000017
     200         -1.053605        1.000000        0.00000018        0.00000115        0.00000009
     201         -1.053457        1.000000        0.00000130        0.00000482        0.00000038
     202         -1.052589        1.000000        0.00000088        0.00000396        0.00000041
     203         -1.052089        1.000000        0.00001465        0.00005985        0.00000526
     204         -1.051299        1.000000        0.00001664        0.00006606        0.00000563
     205         -1.050676        1.000000        0.00002531        0.00009604        0.00000899
     206         -1.050307        1.000000        0.00000331        0.00001254        0.00000109
     207         -1.049921        1.000000        0.00004328        0.00016586        0.00001521
     208         -1.049485        1.000000        0.00000681        0.00002732        0.00000232
     209         -1.049126        1.000000        0.00000319        0.00001167        0.00000103
     210         -1.048445        1.000000        0.00000390        0.00001368        0.00000145
     211         -1.048201        1.000000        0.00000016        0.00000072        0.00000005
     212         -1.047911        1.000000        0.00000230        0.00000821        0.00000079
     213         -1.047620        1.000000        0.00000244        0.00000914        0.00000085
     214         -1.046931        1.000000        0.00001052        0.00004137        0.00000396
     215         -1.046733        1.000000        0.00000002        0.00000016        0.00000002
     216         -1.046634        1.000000        0.00001873        0.00007239        0.00000687
     217         -1.045930        1.000000        0.00000331        0.00001298        0.00000121
     218         -1.045069        1.000000        0.00000182        0.00000742        0.00000074
     219         -1.044350        1.000000        0.00000185        0.00000738        0.00000072
     220         -1.043623        1.000000        0.00000581        0.00002336        0.00000227
     221         -1.043421        1.000000        0.00000449        0.00001528        0.00000123
     222         -1.042778        1.000000        0.00000007        0.00000034        0.00000003
     223         -1.042701        1.000000        0.00000041        0.00000188        0.00000019
     224         -1.042424        1.000000        0.00000379        0.00001634        0.00000155
     225         -1.041682        1.000000        0.00000017        0.00000072        0.00000006
     226         -1.041498        1.000000        0.00002048        0.00008944        0.00000776
     227         -1.040837        1.000000        0.00000018        0.00000059        0.00000005
     228         -1.040496        1.000000        0.00000256        0.00001133        0.00000100
     229         -1.040151        1.000000        0.00000202        0.00000854        0.00000066
     230         -1.039686        1.000000        0.00000069        0.00000302        0.00000029
     231         -1.038961        1.000000        0.00000021        0.00000097        0.00000011
     232         -1.038553        1.000000        0.00000025        0.00000161        0.00000009
     233         -1.038476        1.000000        0.00000037        0.00000158        0.00000018
     234         -1.038152        1.000000        0.00000046        0.00000206        0.00000020
     235         -1.038041        1.000000        0.00000000        0.00000003        0.00000000
     236         -1.036855        1.000000        0.00000046        0.00000232        0.00000023
     237         -1.036488        1.000000        0.00000070        0.00000315        0.00000031
     238         -1.036186        1.000000        0.00000001        0.00000001        0.00000000
     239         -1.036068        1.000000        0.00000042        0.00000151        0.00000018
     240         -1.035757        1.000000        0.00000018        0.00000078        0.00000006
     241         -1.035291        1.000000        0.00000022        0.00000088        0.00000011
     242         -1.035048        1.000000        0.00000031        0.00000095        0.00000014
     243         -1.035000        1.000000        0.00000052        0.00000267        0.00000022
     244         -1.034454        1.000000        0.00000004        0.00000019        0.00000001
     245         -1.034219        1.000000        0.00000042        0.00000210        0.00000015
     246         -1.033874        1.000000        0.00000010        0.00000020        0.00000002
     247         -1.033507        1.000000        0.00000001        0.00000004        0.00000001
     248         -1.033219        1.000000        0.00000060        0.00000203        0.00000019
     249         -1.033056        1.000000        0.00000023        0.00000068        0.00000008
     250         -1.032307        1.000000        0.00000001        0.00000008        0.00000001
     251         -1.031324        1.000000        0.00000005        0.00000012        0.00000002
     252         -1.031144        1.000000        0.00000104        0.00000324        0.00000049
     253         -1.030643        1.000000        0.00000196        0.00000683        0.00000086
     254         -1.030284        1.000000        0.00000056        0.00000257        0.00000026
     255         -1.030062        1.000000        0.00000018        0.00000051        0.00000006
     256         -1.029818        1.000000        0.00000144        0.00000717        0.00000058
     257         -1.028552        1.000000        0.00000011        0.00000030        0.00000003
     258         -1.027578        1.000000        0.00000013        0.00000067        0.00000003
     259         -1.027121        1.000000        0.00000090        0.00000360        0.00000036
     260         -1.026880        1.000000        0.00000224        0.00000755        0.00000079
     261         -1.026226        1.000000        0.00000094        0.00000370        0.00000032
     262         -1.025765        1.000000        0.00000076        0.00000287        0.00000029
     263         -1.025299        1.000000        0.00000001        0.00000004        0.00000000
     264         -1.025158        1.000000        0.00000027        0.00000121        0.00000012
     265         -1.025007        1.000000        0.00000738        0.00002995        0.00000297
     266         -1.024422        1.000000        0.00000301        0.00001271        0.00000127
     267         -1.023793        1.000000        0.00000067        0.00000268        0.00000027
     268         -1.023594        1.000000        0.00000157        0.00000662        0.00000068
     269         -1.023069        1.000000        0.00001025        0.00004181        0.00000415
     270         -1.022603        1.000000        0.00000402        0.00001627        0.00000163
     271         -1.022074        1.000000        0.00000153        0.00000603        0.00000064
     272         -1.021695        1.000000        0.00000090        0.00000350        0.00000036
     273         -1.021372        1.000000        0.00000000        0.00000000        0.00000000
     274         -1.021076        1.000000        0.00000087        0.00000389        0.00000039
     275         -1.019492        1.000000        0.00000007        0.00000031        0.00000002
     276         -1.018003        1.000000        0.00000003        0.00000014        0.00000001
     277         -1.016408        1.000000        0.00000005        0.00000020        0.00000002
     278         -1.016278        1.000000        0.00000012        0.00000061        0.00000005
     279         -1.015338        1.000000        0.00000000        0.00000001        0.00000000
     280         -1.013851        1.000000        0.00000000        0.00000001        0.00000000
     281         -1.010223        1.000000        0.00000063        0.00000356        0.00000026
     282         -1.009666        1.000000        0.00000000        0.00000000        0.00000000
     283         -1.007726        1.000000        0.00001640        0.00006498        0.00000744
     284         -1.007300        1.000000        0.00000173        0.00000727        0.00000078
     285         -1.006916        1.000000        0.00000001        0.00000003        0.00000000
     286         -0.889442        1.000000        0.00316704        0.00018108        0.00000504
     287         -0.869424        1.000000        0.00231394        0.00077580        0.00003350
     288         -0.867225        1.000000        0.01026571        0.00045856        0.00003347
     289         -0.864755        1.000000        0.00190793        0.00053239        0.00001571
     290         -0.860947        1.000000        0.00287887        0.00059845        0.00000923
     291         -0.846899        1.000000        0.00030525        0.00061886        0.00004413
     292         -0.844423        1.000000        0.00000399        0.00156295        0.00001206
     293         -0.843782        1.000000        0.01578880        0.00103330        0.00002785
     294         -0.840445        1.000000        0.01087693        0.00070968        0.00002056
     295         -0.821748        1.000000        0.00611466        0.00072433        0.00004963
     296         -0.818927        1.000000        0.00854015        0.00044663        0.00013399
     297         -0.814033        1.000000        0.00339928        0.00004959        0.00005696
     298         -0.808071        1.000000        0.00316365        0.00025655        0.00003511
     299         -0.807076        1.000000        0.00353832        0.00053340        0.00005195
     300         -0.806003        1.000000        0.00003089        0.00012821        0.00006842
     301         -0.805433        1.000000        0.01223552        0.00020670        0.00008575
     302         -0.803208        1.000000        0.00140211        0.00079647        0.00007119
     303         -0.802271        1.000000        0.00011882        0.00076359        0.00002445
     304         -0.801014        1.000000        0.00153944        0.00014386        0.00001697
     305         -0.800419        1.000000        0.00434018        0.00044787        0.00004286
     306         -0.800163        1.000000        0.00404035        0.00002031        0.00001254
     307         -0.798966        1.000000        0.00615723        0.00022885        0.00003668