# Projected DOS for atomic kind O at iteration step i = 0, E(Fermi) =    -0.245567 a.u.
#     MO Eigenvalue [a.u.]      Occupation                 s                 p                 d
       1         -3.122063        1.000000        0.00000041        0.00000026        0.00000002
       2         -3.121278        1.000000        0.00000040        0.00000035        0.00000004
       3         -3.121021        1.000000        0.00000014        0.00000016        0.00000002
       4         -3.120578        1.000000        0.00000032        0.00000021        0.00000002
       5         -3.120271        1.000000        0.00000015        0.00000011        0.00000001
       6         -3.119857        1.000000        0.00000010        0.00000009        0.00000001
       7         -3.119652        1.000000        0.00000020        0.00000019        0.00000002
       8         -3.119624        1.000000        0.00000005        0.00000009        0.00000001
       9         -3.119219        1.000000        0.00000007        0.00000008        0.00000001
      10         -3.119023        1.000000        0.00000006        0.00000008        0.00000001
      11         -3.118913        1.000000        0.00000010        0.00000007        0.00000001
      12         -3.118874        1.000000        0.00000003        0.00000002        0.00000000
      13         -3.118317        1.000000        0.00000020        0.00000013        0.00000001
      14         -3.118249        1.000000        0.00000015        0.00000013        0.00000002
      15         -3.117895        1.000000        0.00000010        0.00000011        0.00000001
      16         -3.117383        1.000000        0.00000017        0.00000013        0.00000001
      17         -3.117165        1.000000        0.00000002        0.00000003        0.00000000
      18         -3.116815        1.000000        0.00000025        0.00000021        0.00000002
      19         -3.116436        1.000000        0.00000004        0.00000006        0.00000001
      20         -3.116021        1.000000        0.00000017        0.00000012        0.00000001
      21         -3.115852        1.000000        0.00000004        0.00000006        0.00000001
      22         -3.115668        1.000000        0.00000018        0.00000013        0.00000001
      23         -3.115368        1.000000        0.00000005        0.00000004        0.00000001
      24         -3.115339        1.000000        0.00000002        0.00000004        0.00000000
      25         -3.115041        1.000000        0.00000007        0.00000006        0.00000001
      26         -3.114366        1.000000        0.00000007        0.00000006        0.00000001
      27         -3.113951        1.000000        0.00000002        0.00000004        0.00000001
      28         -3.113764        1.000000        0.00000002        0.00000003        0.00000000
      29         -3.112534        1.000000        0.00000004        0.00000003        0.00000000
      30         -3.111679        1.000000        0.00000006        0.00000006        0.00000001
      31         -1.784233        1.000000        0.00000000        0.00000000        0.00000000
      32         -1.782870        1.000000        0.00000000        0.00000000        0.00000000
      33         -1.782324        1.000000        0.00000000        0.00000000        0.00000000
      34         -1.782130        1.000000        0.00000000        0.00000000        0.00000000
      35         -1.781736        1.000000        0.00000000        0.00000000        0.00000000
      36         -1.781230        1.000000        0.00000000        0.00000000        0.00000000
      37         -1.780847        1.000000        0.00000000        0.00000000        0.00000000
      38         -1.780487        1.000000        0.00000000        0.00000001        0.00000000
      39         -1.780184        1.000000        0.00000000        0.00000000        0.00000000
      40         -1.779550        1.000000        0.00000000        0.00000000        0.00000000
      41         -1.779259        1.000000        0.00000000        0.00000000        0.00000000
      42         -1.778921        1.000000        0.00000000        0.00000001        0.00000000
      43         -1.778390        1.000000        0.00000000        0.00000000        0.00000000
      44         -1.778140        1.000000        0.00000000        0.00000000        0.00000000
      45         -1.777912        1.000000        0.00000000        0.00000000        0.00000000
      46         -1.777514        1.000000        0.00000000        0.00000000        0.00000000
      47         -1.777362        1.000000        0.00000000        0.00000000        0.00000000
      48         -1.776787        1.000000        0.00000000        0.00000000        0.00000000
      49         -1.776537        1.000000        0.00000000        0.00000000        0.00000000
      50         -1.776457        1.000000        0.00000000        0.00000000        0.00000000
      51         -1.776029        1.000000        0.00000000        0.00000000        0.00000000
      52         -1.774038        1.000000        0.00000000        0.00000000        0.00000000
      53         -1.773797        1.000000        0.00000001        0.00000001        0.00000000
      54         -1.773665        1.000000        0.00000000        0.00000000        0.00000000
      55         -1.772725        1.000000        0.00000000        0.00000000        0.00000000
      56         -1.772546        1.000000        0.00000000        0.00000000        0.00000000
      57         -1.772041        1.000000        0.00000000        0.00000000        0.00000000
      58         -1.771662        1.000000        0.00000000        0.00000000        0.00000000
      59         -1.771364        1.000000        0.00000000        0.00000000        0.00000000
      60         -1.770813        1.000000        0.00000000        0.00000000        0.00000000
      61         -1.770640        1.000000        0.00000000        0.00000000        0.00000000
      62         -1.770449        1.000000        0.00000000        0.00000000        0.00000000
      63         -1.770188        1.000000        0.00000000        0.00000000        0.00000000
      64         -1.770126        1.000000        0.00000000        0.00000000        0.00000000
      65         -1.769991        1.000000        0.00000000        0.00000000        0.00000000
      66         -1.769845        1.000000        0.00000000        0.00000000        0.00000000
      67         -1.769763        1.000000        0.00000000        0.00000000        0.00000000
      68         -1.769661        1.000000        0.00000000        0.00000000        0.00000000
      69         -1.769465        1.000000        0.00000000        0.00000000        0.00000000
      70         -1.769351        1.000000        0.00000000        0.00000000        0.00000000
      71         -1.769328        1.000000        0.00000000        0.00000001        0.00000000
      72         -1.769216        1.000000        0.00000000        0.00000000        0.00000000
      73         -1.769129        1.000000        0.00000000        0.00000001        0.00000000
      74         -1.769070        1.000000        0.00000000        0.00000000        0.00000000
      75         -1.768941        1.000000        0.00000000        0.00000001        0.00000000
      76         -1.768822        1.000000        0.00000000        0.00000000        0.00000000
      77         -1.768707        1.000000        0.00000000        0.00000000        0.00000000
      78         -1.768585        1.000000        0.00000000        0.00000000        0.00000000
      79         -1.768439        1.000000        0.00000000        0.00000001        0.00000000
      80         -1.768329        1.000000        0.00000000        0.00000000        0.00000000
      81         -1.768089        1.000000        0.00000000        0.00000001        0.00000000
      82         -1.767883        1.000000        0.00000000        0.00000001        0.00000000
      83         -1.767662        1.000000        0.00000000        0.00000001        0.00000000
      84         -1.767495        1.000000        0.00000000        0.00000000        0.00000000
      85         -1.767311        1.000000        0.00000000        0.00000000        0.00000000
      86         -1.767266        1.000000        0.00000000        0.00000001        0.00000000
      87         -1.767060        1.000000        0.00000000        0.00000000        0.00000000
      88         -1.767025        1.000000        0.00000000        0.00000001        0.00000000
      89         -1.766872        1.000000        0.00000000        0.00000000        0.00000000
      90         -1.766524        1.000000        0.00000000        0.00000001        0.00000000
      91         -1.766405        1.000000        0.00000000        0.00000001        0.00000000
      92         -1.766254        1.000000        0.00000000        0.00000001        0.00000000
      93         -1.766123        1.000000        0.00000000        0.00000000        0.00000000
      94         -1.765857        1.000000        0.00000000        0.00000000        0.00000000
      95         -1.765515        1.000000        0.00000000        0.00000000        0.00000000
      96         -1.765181        1.000000        0.00000000        0.00000000        0.00000000
      97         -1.765105        1.000000        0.00000000        0.00000000        0.00000000
      98         -1.764967        1.000000        0.00000000        0.00000000        0.00000000
      99         -1.764710        1.000000        0.00000000        0.00000000        0.00000000
     100         -1.764440        1.000000        0.00000000        0.00000000        0.00000000
     101         -1.764248        1.000000        0.00000000        0.00000000        0.00000000
     102         -1.763945        1.000000        0.00000000        0.00000000        0.00000000
     103         -1.763804        1.000000        0.00000000        0.00000000        0.00000000
     104         -1.763351        1.000000        0.00000000        0.00000000        0.00000000
     105         -1.763205        1.000000        0.00000000        0.00000000        0.00000000
     106         -1.763107        1.000000        0.00000000        0.00000000        0.00000000
     107         -1.762531        1.000000        0.00000000        0.00000000        0.00000000
     108         -1.762343        1.000000        0.00000000        0.00000000        0.00000000
     109         -1.761453        1.000000        0.00000000        0.00000000        0.00000000
     110         -1.760969        1.000000        0.00000000        0.00000000        0.00000000
     111         -1.760481        1.000000        0.00000000        0.00000000        0.00000000
     112         -1.760009        1.000000        0.00000000        0.00000000        0.00000000
     113         -1.759531        1.000000        0.00000000        0.00000000        0.00000000
     114         -1.759105        1.000000        0.00000000        0.00000000        0.00000000
     115         -1.758777        1.000000        0.00000000        0.00000000        0.00000000
     116         -1.757462        1.000000        0.00000000        0.00000000        0.00000000
     117         -1.756221        1.000000        0.00000000        0.00000000        0.00000000
     118         -1.755333        1.000000        0.00000000        0.00000000        0.00000000
     119         -1.754385        1.000000        0.00000000        0.00000000        0.00000000
     120         -1.752742        1.000000        0.00000000        0.00000000        0.00000000
     121         -1.131181        1.000000        0.53059079        0.03395275        0.01181086
     122         -1.128658        1.000000        0.50819197        0.04200217        0.01050232
     123         -1.128000        1.000000        0.46312307        0.03440201        0.00943387
     124         -1.126427        1.000000        0.46399191        0.03551377        0.00942967
     125         -1.120469        1.000000        0.52948095        0.03971235        0.01092504
     126         -1.119202        1.000000        0.50797511        0.04591169        0.00981231
     127         -1.117081        1.000000        0.50414943        0.04446428        0.01043211
     128         -1.116156        1.000000        0.51413837        0.04275142        0.01002556
     129         -1.115054        1.000000        0.51888624        0.04459760        0.01102726
     130         -1.111818        1.000000        0.48541212        0.04390294        0.00937804
     131         -1.111610        1.000000        0.52448048        0.04460173        0.01097534
     132         -1.110976        1.000000        0.48926234        0.04448381        0.00971974
     133         -1.109888        1.000000        0.47299439        0.04127901        0.00989117
     134         -1.108601        1.000000        0.51099151        0.04653408        0.00971815
     135         -1.108036        1.000000        0.46213513        0.04489066        0.00905561
     136         -1.107349        1.000000        0.51675856        0.04721187        0.01045846
     137         -1.106797        1.000000        0.50773108        0.04639411        0.00974714
     138         -1.106077        1.000000        0.47454527        0.04265787        0.00933896
     139         -1.104162        1.000000        0.43635703        0.04244883        0.00864578
     140         -1.102892        1.000000        0.47966330        0.04743231        0.00881975
     141         -1.102196        1.000000        0.47369553        0.04739433        0.00869159
     142         -1.101581        1.000000        0.48132468        0.04889895        0.00879098
     143         -1.101215        1.000000        0.48644680        0.04799726        0.00900333
     144         -1.099602        1.000000        0.49324142        0.04969816        0.00884299
     145         -1.098107        1.000000        0.47556948        0.04644598        0.00907593
     146         -1.097450        1.000000        0.42736871        0.04667075        0.00756489
     147         -1.097046        1.000000        0.46681467        0.04880503        0.00857526
     148         -1.095795        1.000000        0.45642807        0.05113120        0.00772322
     149         -1.095192        1.000000        0.41411661        0.04567528        0.00722474
     150         -1.093515        1.000000        0.43138924        0.04675893        0.00742540
     151         -1.093123        1.000000        0.41880956        0.04534796        0.00756324
     152         -1.092614        1.000000        0.45487875        0.04626366        0.00808496
     153         -1.091821        1.000000        0.47302933        0.05090885        0.00801285
     154         -1.090761        1.000000        0.42033971        0.04384947        0.00744585
     155         -1.090597        1.000000        0.25302777        0.02669170        0.00432539
     156         -1.089544        1.000000        0.27471986        0.02899597        0.00474345
     157         -1.088154        1.000000        0.37160461        0.03522576        0.00650214
     158         -1.086960        1.000000        0.38827150        0.04052293        0.00668517
     159         -1.086718        1.000000        0.40376828        0.04155052        0.00652960
     160         -1.085525        1.000000        0.37413277        0.04062172        0.00561476
     161         -1.084219        1.000000        0.38657893        0.04141827        0.00578363
     162         -1.082734        1.000000        0.41307197        0.04246389        0.00553315
     163         -1.082381        1.000000        0.33232597        0.03512070        0.00492558
     164         -1.080807        1.000000        0.36942858        0.03934532        0.00543222
     165         -1.080293        1.000000        0.36630855        0.03775983        0.00552712
     166         -1.079453        1.000000        0.35768671        0.04011324        0.00483828
     167         -1.078246        1.000000        0.42633819        0.04302367        0.00534778
     168         -1.077774        1.000000        0.38315008        0.03839623        0.00484933
     169         -1.077143        1.000000        0.39718232        0.04228626        0.00483856
     170         -1.076426        1.000000        0.45854348        0.04042574        0.00547117
     171         -1.076145        1.000000        0.37830939        0.03448217        0.00499802
     172         -1.074526        1.000000        0.36619125        0.03379964        0.00445041
     173         -1.074368        1.000000        0.39917523        0.03760108        0.00521688
     174         -1.073652        1.000000        0.30972236        0.03115809        0.00436988
     175         -1.072808        1.000000        0.43270144        0.04390196        0.00524733
     176         -1.072152        1.000000        0.45250401        0.04068783        0.00536739
     177         -1.071192        1.000000        0.43327359        0.03692142        0.00522275
     178         -1.070444        1.000000        0.34266167        0.02803674        0.00436007
     179         -1.070141        1.000000        0.31063190        0.02682244        0.00403115
     180         -1.069416        1.000000        0.43076708        0.04004803        0.00521317
     181         -1.069179        1.000000        0.42651361        0.02823846        0.00439296
     182         -1.067610        1.000000        0.39893602        0.03388766        0.00453838
     183         -1.066240        1.000000        0.42776292        0.03347959        0.00470652
     184         -1.065124        1.000000        0.44627316        0.03729334        0.00488616
     185         -1.064565        1.000000        0.42252586        0.03347530        0.00462520
     186         -1.063575        1.000000        0.40400681        0.02927920        0.00419377
     187         -1.062901        1.000000        0.32441830        0.02698869        0.00384837
     188         -1.062274        1.000000        0.33088102        0.02626454        0.00376017
     189         -1.061481        1.000000        0.41095178        0.02866494        0.00416044
     190         -1.061312        1.000000        0.43485978        0.03351754        0.00456550
     191         -1.060592        1.000000        0.41439962        0.02467870        0.00417950
     192         -1.059297        1.000000        0.45173466        0.02536432        0.00432735
     193         -1.058643        1.000000        0.40398001        0.02596302        0.00430154
     194         -1.058262        1.000000        0.36018626        0.02466462        0.00352660
     195         -1.057127        1.000000        0.30130918        0.01998819        0.00346166
     196         -1.056224        1.000000        0.28488960        0.01164765        0.00279101
     197         -1.056050        1.000000        0.25767632        0.01490606        0.00298533
     198         -1.054881        1.000000        0.31334556        0.01263078        0.00300851
     199         -1.054669        1.000000        0.46259290        0.02223062        0.00445822
     200         -1.053605        1.000000        0.42119031        0.01567792        0.00375071
     201         -1.053457        1.000000        0.38920500        0.01567918        0.00326613
     202         -1.052589        1.000000        0.50275369        0.02428670        0.00448594
     203         -1.052089        1.000000        0.37697248        0.01667532        0.00423105
     204         -1.051299        1.000000        0.44299144        0.01982921        0.00409696
     205         -1.050676        1.000000        0.42843967        0.01923550        0.00364263
     206         -1.050307        1.000000        0.44363243        0.01335709        0.00364506
     207         -1.049921        1.000000        0.37970777        0.01212184        0.00327633
     208         -1.049485        1.000000        0.48201703        0.01806570        0.00401150
     209         -1.049126        1.000000        0.44992937        0.01314656        0.00384655
     210         -1.048445        1.000000        0.41756337        0.01331309        0.00388501
     211         -1.048201        1.000000        0.47507304        0.01637240        0.00444939
     212         -1.047911        1.000000        0.39141344        0.01438436        0.00409795
     213         -1.047620        1.000000        0.49560087        0.01560449        0.00418362
     214         -1.046931        1.000000        0.44302649        0.01238871        0.00411704
     215         -1.046733        1.000000        0.44812471        0.01399524        0.00417382
     216         -1.046634        1.000000        0.37203924        0.01248551        0.00355078
     217         -1.045930        1.000000        0.49530715        0.01398765        0.00390005
     218         -1.045069        1.000000        0.46267705        0.01171038        0.00393346
     219         -1.044350        1.000000        0.52034502        0.01215306        0.00441733
     220         -1.043623        1.000000        0.41511776        0.01137077        0.00385233
     221         -1.043421        1.000000        0.22773425        0.00645393        0.00241510
     222         -1.042778        1.000000        0.49476007        0.01174468        0.00435641
     223         -1.042701        1.000000        0.40654564        0.01116507        0.00366024
     224         -1.042424        1.000000        0.44517551        0.01221974        0.00377533
     225         -1.041682        1.000000        0.42128802        0.01180880        0.00383100
     226         -1.041498        1.000000        0.40042033        0.01256539        0.00352012
     227         -1.040837        1.000000        0.42116499        0.00906376        0.00357232
     228         -1.040496        1.000000        0.44641245        0.01003851        0.00404967
     229         -1.040151        1.000000        0.44288966        0.00984945        0.00364462
     230         -1.039686        1.000000        0.44796234        0.00970990        0.00418114
     231         -1.038961        1.000000        0.40186009        0.00926155        0.00373450
     232         -1.038553        1.000000        0.43776067        0.01040098        0.00390038
     233         -1.038476        1.000000        0.34740131        0.00844426        0.00314257
     234         -1.038152        1.000000        0.54012840        0.01188622        0.00440738
     235         -1.038041        1.000000        0.51603812        0.01188842        0.00440514
     236         -1.036855        1.000000        0.48915529        0.01068976        0.00353071
     237         -1.036488        1.000000        0.50066395        0.01052789        0.00401297
     238         -1.036186        1.000000        0.52426242        0.01162727        0.00408917
     239         -1.036068        1.000000        0.50236214        0.01035166        0.00449307
     240         -1.035757        1.000000        0.48006702        0.00983803        0.00394061
     241         -1.035291        1.000000        0.48658177        0.00929075        0.00389378
     242         -1.035048        1.000000        0.51356133        0.01049516        0.00429892
     243         -1.035000        1.000000        0.50575114        0.01091520        0.00402571
     244         -1.034454        1.000000        0.53570231        0.01028895        0.00396293
     245         -1.034219        1.000000        0.50771811        0.01030925        0.00352622
     246         -1.033874        1.000000        0.47386718        0.00972251        0.00384347
     247         -1.033507        1.000000        0.48924192        0.01118224        0.00356378
     248         -1.033219        1.000000        0.51763473        0.00967600        0.00409366
     249         -1.033056        1.000000        0.47360810        0.00958721        0.00409149
     250         -1.032307        1.000000        0.51958776        0.00985081        0.00423637
     251         -1.031324        1.000000        0.45257633        0.00895120        0.00347066
     252         -1.031144        1.000000        0.45316059        0.00983799        0.00396368
     253         -1.030643        1.000000        0.48310917        0.01050629        0.00419053
     254         -1.030284        1.000000        0.50491657        0.00999265        0.00390293
     255         -1.030062        1.000000        0.49909903        0.00972302        0.00414255
     256         -1.029818        1.000000        0.53231768        0.01017701        0.00391167
     257         -1.028552        1.000000        0.54568617        0.01003009        0.00422724
     258         -1.027578        1.000000        0.51874550        0.00816427        0.00392811
     259         -1.027121        1.000000        0.56554585        0.00926558        0.00467862
     260         -1.026880        1.000000        0.47207956        0.00902091        0.00418252
     261         -1.026226        1.000000        0.54554633        0.00930441        0.00445971
     262         -1.025765        1.000000        0.54239456        0.00915016        0.00429598
     263         -1.025299        1.000000        0.46414599        0.00833530        0.00349425
     264         -1.025158        1.000000        0.49216017        0.01000157        0.00378193
     265         -1.025007        1.000000        0.47579966        0.00940483        0.00391144
     266         -1.024422        1.000000        0.51786391        0.00910892        0.00390114
     267         -1.023793        1.000000        0.55627755        0.01020465        0.00377112
     268         -1.023594        1.000000        0.17996859        0.00384772        0.00187848
     269         -1.023069        1.000000        0.46265287        0.00953625        0.00366470
     270         -1.022603        1.000000        0.52387569        0.01022112        0.00416624
     271         -1.022074        1.000000        0.53478173        0.01080883        0.00397828
     272         -1.021695        1.000000        0.55740187        0.01001578        0.00412863
     273         -1.021372        1.000000        0.53115881        0.00755023        0.00415307
     274         -1.021076        1.000000        0.39407198        0.00630694        0.00341054
     275         -1.019492        1.000000        0.52950921        0.00996663        0.00400999
     276         -1.018003        1.000000        0.58131519        0.01065814        0.00459655
     277         -1.016408        1.000000        0.40664155        0.00723888        0.00399878
     278         -1.016278        1.000000        0.56511599        0.01085884        0.00480622
     279         -1.015338        1.000000        0.57283948        0.01104700        0.00510107
     280         -1.013851        1.000000        0.58610192        0.01194043        0.00492762
     281         -1.010223        1.000000        0.53783079        0.01031181        0.00374300
     282         -1.009666        1.000000        0.58052928        0.01261654        0.00408069
     283         -1.007726        1.000000        0.13670221        0.00546140        0.00253272
     284         -1.007300        1.000000        0.54255887        0.01198826        0.00461480
     285         -1.006916        1.000000        0.58365598        0.01259423        0.00422606
     286         -0.889442        1.000000        0.00000485        0.00000291        0.00000015
     287         -0.869424        1.000000        0.00000107        0.00000129        0.00000012
     288         -0.867225        1.000000        0.00000171        0.00000165        0.00000010
     289         -0.864755        1.000000        0.00000143        0.00000144        0.00000011
     290         -0.860947        1.000000        0.00000081        0.00000093        0.00000009
     291         -0.846899        1.000000        0.00000069        0.00000089        0.00000008
     292         -0.844423        1.000000        0.00000053        0.00000040        0.00000008
     293         -0.843782        1.000000        0.00000065        0.00000091        0.00000007
     294         -0.840445        1.000000        0.00000045        0.00000058        0.00000007
     295         -0.821748        1.000000        0.00000042        0.00000049        0.00000006
     296         -0.818927        1.000000        0.00000041        0.00000047        0.00000008
     297         -0.814033        1.000000        0.00000540        0.00000308        0.00000017
     298         -0.808071        1.000000        0.00000066        0.00000078        0.00000006
     299         -0.807076        1.000000        0.00000071        0.00000080        0.00000008
     300         -0.806003        1.000000        0.00000070        0.00000068        0.00000005
     301         -0.805433        1.000000        0.00000125        0.00000124        0.00000014
     302         -0.803208        1.000000        0.00000070        0.00000082        0.00000009
     303         -0.802271        1.000000        0.00000114        0.00000108        0.00000011
     304         -0.801014        1.000000        0.00000046        0.00000054        0.00000006
     305         -0.800419        1.000000        0.00000038        0.00000069        0.00000011
     306         -0.800163        1.000000        0.00000044        0.00000058        0.00000007
     307         -0.798966        1.000000        0.00000019        0.00000026        0.00000004