# Projected DOS for list 299 of 1 atoms, at iteration step i = 0, E(Fermi) =    -0.245567 a.u.
#     MO Eigenvalue [a.u.]      Occupation                 s                 p                 d
       1         -3.122063        1.000000        0.00006876        0.00020761        0.00002277
       2         -3.121278        1.000000        0.00000122        0.00000703        0.00000065
       3         -3.121021        1.000000        0.00007829        0.00017939        0.00001501
       4         -3.120578        1.000000        0.00004615        0.00003720        0.00000303
       5         -3.120271        1.000000        0.00071772        0.00068067        0.00004310
       6         -3.119857        1.000000        0.00001188        0.00002823        0.00000441
       7         -3.119652        1.000000        0.00005462        0.00005407        0.00000240
       8         -3.119624        1.000000        0.00013879        0.00021759        0.00001488
       9         -3.119219        1.000000        0.00195874        0.00345224        0.00021201
      10         -3.119023        1.000000        0.00030952        0.00059187        0.00003936
      11         -3.118913        1.000000        0.00034091        0.00075254        0.00005203
      12         -3.118874        1.000000        0.00037039        0.00089374        0.00006186
      13         -3.118317        1.000000        0.00210783        0.00764776        0.00097399
      14         -3.118249        1.000000        0.00016503        0.00060205        0.00007752
      15         -3.117895        1.000000        0.00000268        0.00000435        0.00000050
      16         -3.117383        1.000000        0.00004960        0.00034834        0.00005883
      17         -3.117165        1.000000        0.00000283        0.00000676        0.00000076
      18         -3.116815        1.000000        0.00007552        0.00050204        0.00006585
      19         -3.116436        1.000000        0.00013744        0.00068253        0.00008709
      20         -3.116021        1.000000        0.00000877        0.00006247        0.00000842
      21         -3.115852        1.000000        0.00036718        0.00158692        0.00018613
      22         -3.115668        1.000000        0.00001491        0.00009978        0.00001217
      23         -3.115368        1.000000        0.00006056        0.00027443        0.00002927
      24         -3.115339        1.000000        0.00084863        0.00334928        0.00039467
      25         -3.115041        1.000000        0.00002694        0.00003693        0.00002567
      26         -3.114366        1.000000        0.00000561        0.00002279        0.00000394
      27         -3.113951        1.000000        0.00000119        0.00001918        0.00000167
      28         -3.113764        1.000000        0.00001649        0.00003171        0.00000491
      29         -3.112534        1.000000        0.00000032        0.00000053        0.00000011
      30         -3.111679        1.000000        0.00000118        0.00000055        0.00000013
      31         -1.784233        1.000000        0.00022380        0.00058653        0.00004447
      32         -1.782870        1.000000        0.00000772        0.00021032        0.00009595
      33         -1.782324        1.000000        0.00006029        0.00022024        0.00003814
      34         -1.782130        1.000000        0.00013791        0.00043400        0.00005890
      35         -1.781736        1.000000        0.00046700        0.00106475        0.00004308
      36         -1.781230        1.000000        0.00000772        0.00002501        0.00000716
      37         -1.780847        1.000000        0.00000964        0.00033445        0.00012796
      38         -1.780487        1.000000        0.00007112        0.00018244        0.00002587
      39         -1.780184        1.000000        0.00002492        0.00007930        0.00001247
      40         -1.779550        1.000000        0.00086798        0.00205534        0.00011612
      41         -1.779259        1.000000        0.00000011        0.00004597        0.00002722
      42         -1.778921        1.000000        0.00005712        0.00018365        0.00004195
      43         -1.778390        1.000000        0.00003252        0.00008288        0.00003525
      44         -1.778140        1.000000        0.00002532        0.00006132        0.00000488
      45         -1.777912        1.000000        0.00000001        0.00002119        0.00001325
      46         -1.777514        1.000000        0.00006936        0.00037321        0.00010617
      47         -1.777362        1.000000        0.00000038        0.00014977        0.00005208
      48         -1.776787        1.000000        0.00006568        0.00019102        0.00002911
      49         -1.776537        1.000000        0.00002918        0.00015076        0.00002934
      50         -1.776457        1.000000        0.00000226        0.00012774        0.00005338
      51         -1.776029        1.000000        0.00057239        0.00128919        0.00007343
      52         -1.774038        1.000000        0.00003317        0.00025306        0.00012462
      53         -1.773797        1.000000        0.00014097        0.00018803        0.00000681
      54         -1.773665        1.000000        0.00002333        0.00029312        0.00012799
      55         -1.772725        1.000000        0.00041261        0.00079987        0.00009812
      56         -1.772546        1.000000        0.00000236        0.00002715        0.00000823
      57         -1.772041        1.000000        0.00003959        0.00017497        0.00007208
      58         -1.771662        1.000000        0.00055337        0.00086770        0.00003194
      59         -1.771364        1.000000        0.00009329        0.00027308        0.00004781
      60         -1.770813        1.000000        0.00003371        0.00068801        0.00025616
      61         -1.770640        1.000000        0.00017778        0.00042407        0.00006669
      62         -1.770449        1.000000        0.00000947        0.00012359        0.00005127
      63         -1.770188        1.000000        0.00000840        0.00048835        0.00017107
      64         -1.770126        1.000000        0.00012280        0.00163908        0.00064920
      65         -1.769991        1.000000        0.00023764        0.00033153        0.00000663
      66         -1.769845        1.000000        0.00001591        0.00028650        0.00013884
      67         -1.769763        1.000000        0.00000545        0.00018804        0.00006497
      68         -1.769661        1.000000        0.00012204        0.00055733        0.00014578
      69         -1.769465        1.000000        0.00000050        0.00060438        0.00027142
      70         -1.769351        1.000000        0.00000317        0.00008373        0.00005544
      71         -1.769328        1.000000        0.00001329        0.00005020        0.00001684
      72         -1.769216        1.000000        0.00002274        0.00019556        0.00005877
      73         -1.769129        1.000000        0.00000071        0.00011555        0.00002966
      74         -1.769070        1.000000        0.00009854        0.00084285        0.00029372
      75         -1.768941        1.000000        0.00002710        0.00024287        0.00010040
      76         -1.768822        1.000000        0.00006485        0.00008462        0.00000686
      77         -1.768707        1.000000        0.00000026        0.00007340        0.00005659
      78         -1.768585        1.000000        0.00005572        0.00024613        0.00008050
      79         -1.768439        1.000000        0.00001870        0.00017434        0.00004859
      80         -1.768329        1.000000        0.00002949        0.00018077        0.00007147
      81         -1.768089        1.000000        0.00010689        0.00052657        0.00012108
      82         -1.767883        1.000000        0.00000057        0.00025202        0.00010123
      83         -1.767662        1.000000        0.00001844        0.00004180        0.00000581
      84         -1.767495        1.000000        0.00000748        0.00020671        0.00008039
      85         -1.767311        1.000000        0.00003748        0.00013388        0.00003343
      86         -1.767266        1.000000        0.00000877        0.00027969        0.00017224
      87         -1.767060        1.000000        0.00002391        0.00004446        0.00001171
      88         -1.767025        1.000000        0.00005682        0.00070804        0.00026291
      89         -1.766872        1.000000        0.00005859        0.00023403        0.00007842
      90         -1.766524        1.000000        0.00001605        0.00028794        0.00013360
      91         -1.766405        1.000000        0.00004954        0.00043419        0.00013173
      92         -1.766254        1.000000        0.00000727        0.00017645        0.00008681
      93         -1.766123        1.000000        0.00000018        0.00002424        0.00001866
      94         -1.765857        1.000000        0.00000175        0.00002868        0.00001788
      95         -1.765515        1.000000        0.00001886        0.00021723        0.00008016
      96         -1.765181        1.000000        0.00000740        0.00007314        0.00002083
      97         -1.765105        1.000000        0.00000374        0.00029043        0.00014448
      98         -1.764967        1.000000        0.00006603        0.00045356        0.00015368
      99         -1.764710        1.000000        0.00000283        0.00003652        0.00002266
     100         -1.764440        1.000000        0.00001169        0.00018610        0.00009268
     101         -1.764248        1.000000        0.00000210        0.00020623        0.00011589
     102         -1.763945        1.000000        0.00001630        0.00005436        0.00002619
     103         -1.763804        1.000000        0.00000898        0.00001575        0.00000457
     104         -1.763351        1.000000        0.00000019        0.00000907        0.00001597
     105         -1.763205        1.000000        0.00001814        0.00024701        0.00014581
     106         -1.763107        1.000000        0.00000040        0.00020714        0.00014408
     107         -1.762531        1.000000        0.00002760        0.00017569        0.00005118
     108         -1.762343        1.000000        0.00000451        0.00004574        0.00003302
     109         -1.761453        1.000000        0.00000319        0.00004143        0.00001757
     110         -1.760969        1.000000        0.00014050        0.00057592        0.00018173
     111         -1.760481        1.000000        0.00000518        0.00010574        0.00007866
     112         -1.760009        1.000000        0.00004851        0.00021798        0.00006844
     113         -1.759531        1.000000        0.00001399        0.00003523        0.00000599
     114         -1.759105        1.000000        0.00000568        0.00003410        0.00001075
     115         -1.758777        1.000000        0.00000564        0.00024496        0.00008404
     116         -1.757462        1.000000        0.00000258        0.00028752        0.00011037
     117         -1.756221        1.000000        0.00000120        0.00006509        0.00005266
     118         -1.755333        1.000000        0.00000115        0.00005682        0.00006006
     119         -1.754385        1.000000        0.00000193        0.00026711        0.00018875
     120         -1.752742        1.000000        0.00000008        0.00004587        0.00003084
     121         -1.131181        1.000000        0.00000017        0.00000012        0.00000000
     122         -1.128658        1.000000        0.00000009        0.00000006        0.00000000
     123         -1.128000        1.000000        0.00000015        0.00000009        0.00000000
     124         -1.126427        1.000000        0.00000001        0.00000000        0.00000000
     125         -1.120469        1.000000        0.00000001        0.00000002        0.00000000
     126         -1.119202        1.000000        0.00000000        0.00000000        0.00000000
     127         -1.117081        1.000000        0.00000000        0.00000006        0.00000000
     128         -1.116156        1.000000        0.00000016        0.00000014        0.00000001
     129         -1.115054        1.000000        0.00000051        0.00000038        0.00000002
     130         -1.111818        1.000000        0.00000000        0.00000002        0.00000000
     131         -1.111610        1.000000        0.00000003        0.00000003        0.00000000
     132         -1.110976        1.000000        0.00000005        0.00000001        0.00000000
     133         -1.109888        1.000000        0.00000021        0.00000003        0.00000000
     134         -1.108601        1.000000        0.00000001        0.00000001        0.00000000
     135         -1.108036        1.000000        0.00000019        0.00000005        0.00000000
     136         -1.107349        1.000000        0.00000001        0.00000018        0.00000001
     137         -1.106797        1.000000        0.00000002        0.00000001        0.00000000
     138         -1.106077        1.000000        0.00000004        0.00000012        0.00000001
     139         -1.104162        1.000000        0.00000031        0.00000010        0.00000002
     140         -1.102892        1.000000        0.00000003        0.00000020        0.00000001
     141         -1.102196        1.000000        0.00000005        0.00000009        0.00000001
     142         -1.101581        1.000000        0.00000010        0.00000002        0.00000000
     143         -1.101215        1.000000        0.00000003        0.00000018        0.00000002
     144         -1.099602        1.000000        0.00000013        0.00000003        0.00000000
     145         -1.098107        1.000000        0.00000003        0.00000010        0.00000001
     146         -1.097450        1.000000        0.00000004        0.00000018        0.00000001
     147         -1.097046        1.000000        0.00000004        0.00000001        0.00000000
     148         -1.095795        1.000000        0.00000008        0.00000006        0.00000001
     149         -1.095192        1.000000        0.00000003        0.00000011        0.00000001
     150         -1.093515        1.000000        0.00000001        0.00000005        0.00000001
     151         -1.093123        1.000000        0.00000009        0.00000027        0.00000002
     152         -1.092614        1.000000        0.00000005        0.00000041        0.00000003
     153         -1.091821        1.000000        0.00000001        0.00000001        0.00000000
     154         -1.090761        1.000000        0.00000032        0.00000017        0.00000003
     155         -1.090597        1.000000        0.00000008        0.00000099        0.00000006
     156         -1.089544        1.000000        0.00000047        0.00000128        0.00000012
     157         -1.088154        1.000000        0.00000006        0.00000054        0.00000004
     158         -1.086960        1.000000        0.00000020        0.00000046        0.00000005
     159         -1.086718        1.000000        0.00000010        0.00000042        0.00000004
     160         -1.085525        1.000000        0.00000020        0.00000036        0.00000005
     161         -1.084219        1.000000        0.00000001        0.00000009        0.00000001
     162         -1.082734        1.000000        0.00000009        0.00000024        0.00000004
     163         -1.082381        1.000000        0.00000044        0.00000033        0.00000012
     164         -1.080807        1.000000        0.00000010        0.00000007        0.00000002
     165         -1.080293        1.000000        0.00000004        0.00000028        0.00000001
     166         -1.079453        1.000000        0.00000019        0.00000063        0.00000006
     167         -1.078246        1.000000        0.00000000        0.00000004        0.00000001
     168         -1.077774        1.000000        0.00000011        0.00000006        0.00000003
     169         -1.077143        1.000000        0.00000002        0.00000030        0.00000004
     170         -1.076426        1.000000        0.00000000        0.00000002        0.00000000
     171         -1.076145        1.000000        0.00000004        0.00000019        0.00000002
     172         -1.074526        1.000000        0.00000001        0.00000004        0.00000001
     173         -1.074368        1.000000        0.00000003        0.00000024        0.00000002
     174         -1.073652        1.000000        0.00000042        0.00000039        0.00000003
     175         -1.072808        1.000000        0.00000010        0.00000020        0.00000003
     176         -1.072152        1.000000        0.00000000        0.00000003        0.00000000
     177         -1.071192        1.000000        0.00000006        0.00000041        0.00000002
     178         -1.070444        1.000000        0.00000029        0.00000018        0.00000002
     179         -1.070141        1.000000        0.00000061        0.00000041        0.00000004
     180         -1.069416        1.000000        0.00000001        0.00000039        0.00000003
     181         -1.069179        1.000000        0.00000000        0.00000011        0.00000002
     182         -1.067610        1.000000        0.00000007        0.00000041        0.00000005
     183         -1.066240        1.000000        0.00000009        0.00000021        0.00000004
     184         -1.065124        1.000000        0.00000003        0.00000010        0.00000002
     185         -1.064565        1.000000        0.00000019        0.00000036        0.00000002
     186         -1.063575        1.000000        0.00000001        0.00000060        0.00000009
     187         -1.062901        1.000000        0.00000002        0.00000003        0.00000002
     188         -1.062274        1.000000        0.00000002        0.00000021        0.00000004
     189         -1.061481        1.000000        0.00000008        0.00000015        0.00000000
     190         -1.061312        1.000000        0.00000001        0.00000003        0.00000001
     191         -1.060592        1.000000        0.00000003        0.00000015        0.00000003
     192         -1.059297        1.000000        0.00000000        0.00000019        0.00000003
     193         -1.058643        1.000000        0.00000004        0.00000011        0.00000001
     194         -1.058262        1.000000        0.00000007        0.00000027        0.00000001
     195         -1.057127        1.000000        0.00000001        0.00000047        0.00000007
     196         -1.056224        1.000000        0.00000016        0.00000028        0.00000003
     197         -1.056050        1.000000        0.00000004        0.00000052        0.00000011
     198         -1.054881        1.000000        0.00000006        0.00000020        0.00000002
     199         -1.054669        1.000000        0.00000001        0.00000007        0.00000002
     200         -1.053605        1.000000        0.00000002        0.00000011        0.00000002
     201         -1.053457        1.000000        0.00000001        0.00000003        0.00000001
     202         -1.052589        1.000000        0.00000001        0.00000005        0.00000000
     203         -1.052089        1.000000        0.00000001        0.00000002        0.00000000
     204         -1.051299        1.000000        0.00000002        0.00000015        0.00000001
     205         -1.050676        1.000000        0.00000004        0.00000007        0.00000000
     206         -1.050307        1.000000        0.00000006        0.00000013        0.00000000
     207         -1.049921        1.000000        0.00000001        0.00000008        0.00000000
     208         -1.049485        1.000000        0.00000001        0.00000007        0.00000000
     209         -1.049126        1.000000        0.00000001        0.00000005        0.00000000
     210         -1.048445        1.000000        0.00000002        0.00000007        0.00000000
     211         -1.048201        1.000000        0.00000001        0.00000001        0.00000000
     212         -1.047911        1.000000        0.00000002        0.00000010        0.00000001
     213         -1.047620        1.000000        0.00000005        0.00000010        0.00000000
     214         -1.046931        1.000000        0.00000005        0.00000015        0.00000000
     215         -1.046733        1.000000        0.00000007        0.00000026        0.00000001
     216         -1.046634        1.000000        0.00000002        0.00000015        0.00000001
     217         -1.045930        1.000000        0.00000001        0.00000005        0.00000000
     218         -1.045069        1.000000        0.00000006        0.00000032        0.00000002
     219         -1.044350        1.000000        0.00000000        0.00000002        0.00000000
     220         -1.043623        1.000000        0.00000014        0.00000040        0.00000001
     221         -1.043421        1.000000        0.00000005        0.00000057        0.00000009
     222         -1.042778        1.000000        0.00000000        0.00000002        0.00000000
     223         -1.042701        1.000000        0.00000000        0.00000002        0.00000000
     224         -1.042424        1.000000        0.00000000        0.00000006        0.00000000
     225         -1.041682        1.000000        0.00000002        0.00000001        0.00000001
     226         -1.041498        1.000000        0.00000002        0.00000013        0.00000001
     227         -1.040837        1.000000        0.00000002        0.00000006        0.00000001
     228         -1.040496        1.000000        0.00000001        0.00000007        0.00000000
     229         -1.040151        1.000000        0.00000000        0.00000005        0.00000000
     230         -1.039686        1.000000        0.00000001        0.00000003        0.00000000
     231         -1.038961        1.000000        0.00000001        0.00000000        0.00000000
     232         -1.038553        1.000000        0.00000000        0.00000005        0.00000001
     233         -1.038476        1.000000        0.00000001        0.00000002        0.00000000
     234         -1.038152        1.000000        0.00000000        0.00000000        0.00000000
     235         -1.038041        1.000000        0.00000000        0.00000000        0.00000000
     236         -1.036855        1.000000        0.00000000        0.00000007        0.00000000
     237         -1.036488        1.000000        0.00000003        0.00000022        0.00000001
     238         -1.036186        1.000000        0.00000000        0.00000000        0.00000000
     239         -1.036068        1.000000        0.00000000        0.00000004        0.00000000
     240         -1.035757        1.000000        0.00000001        0.00000018        0.00000002
     241         -1.035291        1.000000        0.00000000        0.00000009        0.00000001
     242         -1.035048        1.000000        0.00000001        0.00000005        0.00000001
     243         -1.035000        1.000000        0.00000002        0.00000007        0.00000000
     244         -1.034454        1.000000        0.00000001        0.00000004        0.00000000
     245         -1.034219        1.000000        0.00000000        0.00000002        0.00000001
     246         -1.033874        1.000000        0.00000006        0.00000038        0.00000002
     247         -1.033507        1.000000        0.00000000        0.00000001        0.00000000
     248         -1.033219        1.000000        0.00000001        0.00000019        0.00000001
     249         -1.033056        1.000000        0.00000002        0.00000020        0.00000001
     250         -1.032307        1.000000        0.00000002        0.00000008        0.00000001
     251         -1.031324        1.000000        0.00000010        0.00000054        0.00000004
     252         -1.031144        1.000000        0.00000004        0.00000032        0.00000001
     253         -1.030643        1.000000        0.00000000        0.00000010        0.00000001
     254         -1.030284        1.000000        0.00000001        0.00000020        0.00000001
     255         -1.030062        1.000000        0.00000001        0.00000007        0.00000000
     256         -1.029818        1.000000        0.00000002        0.00000013        0.00000000
     257         -1.028552        1.000000        0.00000001        0.00000005        0.00000000
     258         -1.027578        1.000000        0.00000002        0.00000031        0.00000001
     259         -1.027121        1.000000        0.00000000        0.00000001        0.00000000
     260         -1.026880        1.000000        0.00000000        0.00000008        0.00000001
     261         -1.026226        1.000000        0.00000001        0.00000008        0.00000000
     262         -1.025765        1.000000        0.00000000        0.00000001        0.00000000
     263         -1.025299        1.000000        0.00000000        0.00000000        0.00000000
     264         -1.025158        1.000000        0.00000002        0.00000003        0.00000002
     265         -1.025007        1.000000        0.00000004        0.00000004        0.00000000
     266         -1.024422        1.000000        0.00000001        0.00000002        0.00000001
     267         -1.023793        1.000000        0.00000000        0.00000000        0.00000000
     268         -1.023594        1.000000        0.00000015        0.00000026        0.00000005
     269         -1.023069        1.000000        0.00000000        0.00000001        0.00000000
     270         -1.022603        1.000000        0.00000000        0.00000001        0.00000000
     271         -1.022074        1.000000        0.00000001        0.00000006        0.00000001
     272         -1.021695        1.000000        0.00000001        0.00000001        0.00000000
     273         -1.021372        1.000000        0.00000000        0.00000000        0.00000000
     274         -1.021076        1.000000        0.00000005        0.00000002        0.00000000
     275         -1.019492        1.000000        0.00000000        0.00000001        0.00000000
     276         -1.018003        1.000000        0.00000000        0.00000000        0.00000000
     277         -1.016408        1.000000        0.00000001        0.00000000        0.00000000
     278         -1.016278        1.000000        0.00000000        0.00000000        0.00000000
     279         -1.015338        1.000000        0.00000000        0.00000001        0.00000000
     280         -1.013851        1.000000        0.00000000        0.00000000        0.00000000
     281         -1.010223        1.000000        0.00000000        0.00000006        0.00000000
     282         -1.009666        1.000000        0.00000000        0.00000000        0.00000000
     283         -1.007726        1.000000        0.00000000        0.00000001        0.00000000
     284         -1.007300        1.000000        0.00000000        0.00000000        0.00000000
     285         -1.006916        1.000000        0.00000000        0.00000000        0.00000000
     286         -0.889442        1.000000        0.01069112        0.00052207        0.00000819
     287         -0.869424        1.000000        0.00561138        0.00044471        0.00000970
     288         -0.867225        1.000000        0.00197995        0.00079272        0.00003607
     289         -0.864755        1.000000        0.00950915        0.00158747        0.00002406
     290         -0.860947        1.000000        0.01846769        0.00146716        0.00002383
     291         -0.846899        1.000000        0.00614068        0.00059057        0.00003165
     292         -0.844423        1.000000        0.00023155        0.00123358        0.00003349
     293         -0.843782        1.000000        0.01034353        0.00056716        0.00002239
     294         -0.840445        1.000000        0.00023961        0.00081065        0.00004077
     295         -0.821748        1.000000        0.00416144        0.00102498        0.00007750
     296         -0.818927        1.000000        0.01654003        0.00050079        0.00008552
     297         -0.814033        1.000000        0.00989943        0.00037983        0.00024197
     298         -0.808071        1.000000        0.00041316        0.00036127        0.00002097
     299         -0.807076        1.000000        0.00376396        0.00028457        0.00005476
     300         -0.806003        1.000000        0.00095538        0.00098427        0.00001127
     301         -0.805433        1.000000        0.00417808        0.00064781        0.00012341
     302         -0.803208        1.000000        0.00851496        0.00069139        0.00016046
     303         -0.802271        1.000000        0.00194003        0.00092616        0.00002114
     304         -0.801014        1.000000        0.08448488        0.00143714        0.00001409
     305         -0.800419        1.000000        0.00170212        0.00033042        0.00004092
     306         -0.800163        1.000000        0.00315363        0.00096037        0.00009651
     307         -0.798966        1.000000        0.00625901        0.00020018        0.00001702