# Projected DOS for atomic kind Hw at iteration step i = 0, E(Fermi) =    -0.245567 a.u.
#     MO Eigenvalue [a.u.]      Occupation                 s                 p
       1         -3.122063        1.000000        0.00005494        0.00034678
       2         -3.121278        1.000000        0.00001972        0.00014703
       3         -3.121021        1.000000        0.00002810        0.00016865
       4         -3.120578        1.000000        0.00002059        0.00014690
       5         -3.120271        1.000000        0.00001760        0.00015801
       6         -3.119857        1.000000        0.00000712        0.00005090
       7         -3.119652        1.000000        0.00003925        0.00019485
       8         -3.119624        1.000000        0.00002064        0.00009806
       9         -3.119219        1.000000        0.00002637        0.00012922
      10         -3.119023        1.000000        0.00001295        0.00006327
      11         -3.118913        1.000000        0.00000861        0.00003875
      12         -3.118874        1.000000        0.00000452        0.00002728
      13         -3.118317        1.000000        0.00000651        0.00009719
      14         -3.118249        1.000000        0.00001188        0.00007196
      15         -3.117895        1.000000        0.00000906        0.00006486
      16         -3.117383        1.000000        0.00001553        0.00011835
      17         -3.117165        1.000000        0.00000208        0.00002522
      18         -3.116815        1.000000        0.00003672        0.00027242
      19         -3.116436        1.000000        0.00001283        0.00009534
      20         -3.116021        1.000000        0.00000898        0.00011421
      21         -3.115852        1.000000        0.00000329        0.00003250
      22         -3.115668        1.000000        0.00000207        0.00007200
      23         -3.115368        1.000000        0.00000133        0.00002893
      24         -3.115339        1.000000        0.00000219        0.00003752
      25         -3.115041        1.000000        0.00000763        0.00004858
      26         -3.114366        1.000000        0.00000380        0.00004844
      27         -3.113951        1.000000        0.00000331        0.00002402
      28         -3.113764        1.000000        0.00000328        0.00003434
      29         -3.112534        1.000000        0.00000266        0.00002945
      30         -3.111679        1.000000        0.00000529        0.00006640
      31         -1.784233        1.000000        0.00000350        0.00000975
      32         -1.782870        1.000000        0.00000163        0.00000855
      33         -1.782324        1.000000        0.00000161        0.00000912
      34         -1.782130        1.000000        0.00000250        0.00000740
      35         -1.781736        1.000000        0.00000272        0.00000663
      36         -1.781230        1.000000        0.00000168        0.00000522
      37         -1.780847        1.000000        0.00000064        0.00000233
      38         -1.780487        1.000000        0.00000106        0.00000501
      39         -1.780184        1.000000        0.00000220        0.00000688
      40         -1.779550        1.000000        0.00000085        0.00000656
      41         -1.779259        1.000000        0.00000146        0.00000705
      42         -1.778921        1.000000        0.00000228        0.00000896
      43         -1.778390        1.000000        0.00000235        0.00001015
      44         -1.778140        1.000000        0.00000296        0.00000913
      45         -1.777912        1.000000        0.00000052        0.00000265
      46         -1.777514        1.000000        0.00000180        0.00000740
      47         -1.777362        1.000000        0.00000140        0.00000614
      48         -1.776787        1.000000        0.00000075        0.00000618
      49         -1.776537        1.000000        0.00000104        0.00000904
      50         -1.776457        1.000000        0.00000150        0.00000614
      51         -1.776029        1.000000        0.00000184        0.00000837
      52         -1.774038        1.000000        0.00000098        0.00000931
      53         -1.773797        1.000000        0.00000109        0.00002431
      54         -1.773665        1.000000        0.00000078        0.00000278
      55         -1.772725        1.000000        0.00000035        0.00000659
      56         -1.772546        1.000000        0.00000073        0.00000995
      57         -1.772041        1.000000        0.00000091        0.00001752
      58         -1.771662        1.000000        0.00000083        0.00001305
      59         -1.771364        1.000000        0.00000056        0.00000682
      60         -1.770813        1.000000        0.00000106        0.00001251
      61         -1.770640        1.000000        0.00000217        0.00000387
      62         -1.770449        1.000000        0.00000105        0.00001134
      63         -1.770188        1.000000        0.00000090        0.00000493
      64         -1.770126        1.000000        0.00000090        0.00000465
      65         -1.769991        1.000000        0.00000043        0.00000590
      66         -1.769845        1.000000        0.00000077        0.00000674
      67         -1.769763        1.000000        0.00000144        0.00000600
      68         -1.769661        1.000000        0.00000038        0.00000341
      69         -1.769465        1.000000        0.00000091        0.00000581
      70         -1.769351        1.000000        0.00000086        0.00000453
      71         -1.769328        1.000000        0.00000078        0.00000222
      72         -1.769216        1.000000        0.00000055        0.00000509
      73         -1.769129        1.000000        0.00000177        0.00000384
      74         -1.769070        1.000000        0.00000068        0.00000190
      75         -1.768941        1.000000        0.00000162        0.00000315
      76         -1.768822        1.000000        0.00000058        0.00000233
      77         -1.768707        1.000000        0.00000093        0.00000259
      78         -1.768585        1.000000        0.00000038        0.00000131
      79         -1.768439        1.000000        0.00000123        0.00000390
      80         -1.768329        1.000000        0.00000052        0.00000272
      81         -1.768089        1.000000        0.00000095        0.00000342
      82         -1.767883        1.000000        0.00000077        0.00000162
      83         -1.767662        1.000000        0.00000068        0.00000263
      84         -1.767495        1.000000        0.00000105        0.00000287
      85         -1.767311        1.000000        0.00000079        0.00000260
      86         -1.767266        1.000000        0.00000092        0.00000430
      87         -1.767060        1.000000        0.00000056        0.00000161
      88         -1.767025        1.000000        0.00000089        0.00000361
      89         -1.766872        1.000000        0.00000045        0.00000244
      90         -1.766524        1.000000        0.00000055        0.00000167
      91         -1.766405        1.000000        0.00000065        0.00000211
      92         -1.766254        1.000000        0.00000058        0.00000211
      93         -1.766123        1.000000        0.00000048        0.00000186
      94         -1.765857        1.000000        0.00000113        0.00000292
      95         -1.765515        1.000000        0.00000055        0.00000088
      96         -1.765181        1.000000        0.00000093        0.00000137
      97         -1.765105        1.000000        0.00000085        0.00000205
      98         -1.764967        1.000000        0.00000065        0.00000158
      99         -1.764710        1.000000        0.00000020        0.00000140
     100         -1.764440        1.000000        0.00000048        0.00000144
     101         -1.764248        1.000000        0.00000101        0.00000244
     102         -1.763945        1.000000        0.00000033        0.00000196
     103         -1.763804        1.000000        0.00000069        0.00000191
     104         -1.763351        1.000000        0.00000070        0.00000312
     105         -1.763205        1.000000        0.00000088        0.00000180
     106         -1.763107        1.000000        0.00000063        0.00000304
     107         -1.762531        1.000000        0.00000034        0.00000144
     108         -1.762343        1.000000        0.00000052        0.00000251
     109         -1.761453        1.000000        0.00000065        0.00000200
     110         -1.760969        1.000000        0.00000032        0.00000173
     111         -1.760481        1.000000        0.00000047        0.00000137
     112         -1.760009        1.000000        0.00000042        0.00000213
     113         -1.759531        1.000000        0.00000020        0.00000065
     114         -1.759105        1.000000        0.00000052        0.00000233
     115         -1.758777        1.000000        0.00000005        0.00000027
     116         -1.757462        1.000000        0.00000004        0.00000013
     117         -1.756221        1.000000        0.00000004        0.00000017
     118         -1.755333        1.000000        0.00000003        0.00000006
     119         -1.754385        1.000000        0.00000002        0.00000011
     120         -1.752742        1.000000        0.00000004        0.00000009
     121         -1.131181        1.000000        0.00083454        0.00097290
     122         -1.128658        1.000000        0.00158488        0.00157216
     123         -1.128000        1.000000        0.00165816        0.00147649
     124         -1.126427        1.000000        0.00010963        0.00010492
     125         -1.120469        1.000000        0.00049760        0.00061330
     126         -1.119202        1.000000        0.00081646        0.00110179
     127         -1.117081        1.000000        0.00259686        0.00168279
     128         -1.116156        1.000000        0.00352093        0.00368969
     129         -1.115054        1.000000        0.00198248        0.00275406
     130         -1.111818        1.000000        0.00315144        0.00248121
     131         -1.111610        1.000000        0.00212787        0.00185675
     132         -1.110976        1.000000        0.00085373        0.00069806
     133         -1.109888        1.000000        0.00124680        0.00192747
     134         -1.108601        1.000000        0.00024362        0.00043719
     135         -1.108036        1.000000        0.00148073        0.00152976
     136         -1.107349        1.000000        0.00197703        0.00190580
     137         -1.106797        1.000000        0.00055746        0.00064066
     138         -1.106077        1.000000        0.00269391        0.00253588
     139         -1.104162        1.000000        0.00699303        0.00682948
     140         -1.102892        1.000000        0.00235593        0.00213574
     141         -1.102196        1.000000        0.00144551        0.00160607
     142         -1.101581        1.000000        0.00208180        0.00156852
     143         -1.101215        1.000000        0.00241597        0.00240080
     144         -1.099602        1.000000        0.00318952        0.00212190
     145         -1.098107        1.000000        0.00582222        0.00309408
     146         -1.097450        1.000000        0.00658507        0.00362268
     147         -1.097046        1.000000        0.00283525        0.00248731
     148         -1.095795        1.000000        0.00540957        0.00353669
     149         -1.095192        1.000000        0.00689017        0.00485181
     150         -1.093515        1.000000        0.00366077        0.00304623
     151         -1.093123        1.000000        0.02473204        0.01100702
     152         -1.092614        1.000000        0.00465345        0.00337845
     153         -1.091821        1.000000        0.00273256        0.00199756
     154         -1.090761        1.000000        0.01913576        0.01132206
     155         -1.090597        1.000000        0.13962185        0.06774951
     156         -1.089544        1.000000        0.10444624        0.05147649
     157         -1.088154        1.000000        0.06641383        0.03277982
     158         -1.086960        1.000000        0.02459185        0.01110145
     159         -1.086718        1.000000        0.01619346        0.00885330
     160         -1.085525        1.000000        0.03289555        0.00968134
     161         -1.084219        1.000000        0.00438771        0.00266370
     162         -1.082734        1.000000        0.01649978        0.00925511
     163         -1.082381        1.000000        0.06234552        0.03162826
     164         -1.080807        1.000000        0.01531317        0.00870370
     165         -1.080293        1.000000        0.04608268        0.02530562
     166         -1.079453        1.000000        0.02318201        0.01490835
     167         -1.078246        1.000000        0.00428260        0.00337499
     168         -1.077774        1.000000        0.05598848        0.02558093
     169         -1.077143        1.000000        0.01615087        0.00691200
     170         -1.076426        1.000000        0.00209076        0.00100956
     171         -1.076145        1.000000        0.01946803        0.01017570
     172         -1.074526        1.000000        0.06682567        0.03067829
     173         -1.074368        1.000000        0.03538813        0.01702715
     174         -1.073652        1.000000        0.06082799        0.02979443
     175         -1.072808        1.000000        0.01707659        0.00646816
     176         -1.072152        1.000000        0.00532357        0.00358059
     177         -1.071192        1.000000        0.00897939        0.00514001
     178         -1.070444        1.000000        0.06448037        0.02520182
     179         -1.070141        1.000000        0.07949680        0.03665414
     180         -1.069416        1.000000        0.01744354        0.00985046
     181         -1.069179        1.000000        0.02591158        0.01133291
     182         -1.067610        1.000000        0.03205106        0.01617156
     183         -1.066240        1.000000        0.03308774        0.01776457
     184         -1.065124        1.000000        0.01671126        0.00971485
     185         -1.064565        1.000000        0.03488439        0.01519840
     186         -1.063575        1.000000        0.04500278        0.02033070
     187         -1.062901        1.000000        0.07205843        0.03787616
     188         -1.062274        1.000000        0.05324523        0.02583836
     189         -1.061481        1.000000        0.03382970        0.01901896
     190         -1.061312        1.000000        0.02801320        0.01173258
     191         -1.060592        1.000000        0.02916622        0.01481738
     192         -1.059297        1.000000        0.01535509        0.00748708
     193         -1.058643        1.000000        0.03354064        0.01427906
     194         -1.058262        1.000000        0.07966251        0.03218249
     195         -1.057127        1.000000        0.06693111        0.03691446
     196         -1.056224        1.000000        0.10452036        0.04771167
     197         -1.056050        1.000000        0.03276575        0.03466634
     198         -1.054881        1.000000        0.08373282        0.03897045
     199         -1.054669        1.000000        0.01646417        0.00956739
     200         -1.053605        1.000000        0.01233851        0.00587759
     201         -1.053457        1.000000        0.02095727        0.00901516
     202         -1.052589        1.000000        0.01402451        0.00735514
     203         -1.052089        1.000000        0.03179356        0.01293506
     204         -1.051299        1.000000        0.02731903        0.00974149
     205         -1.050676        1.000000        0.03265983        0.01145989
     206         -1.050307        1.000000        0.01929778        0.00914980
     207         -1.049921        1.000000        0.05883817        0.02041753
     208         -1.049485        1.000000        0.01656925        0.00787625
     209         -1.049126        1.000000        0.00910354        0.00491000
     210         -1.048445        1.000000        0.01970105        0.00801964
     211         -1.048201        1.000000        0.01536771        0.00686751
     212         -1.047911        1.000000        0.01647532        0.00988193
     213         -1.047620        1.000000        0.01192864        0.00545851
     214         -1.046931        1.000000        0.01523932        0.00734549
     215         -1.046733        1.000000        0.00559118        0.00395691
     216         -1.046634        1.000000        0.02507188        0.01180308
     217         -1.045930        1.000000        0.00513506        0.00270599
     218         -1.045069        1.000000        0.00787240        0.00610997
     219         -1.044350        1.000000        0.00344087        0.00185525
     220         -1.043623        1.000000        0.02363925        0.01429706
     221         -1.043421        1.000000        0.04737003        0.04579328
     222         -1.042778        1.000000        0.00082997        0.00065625
     223         -1.042701        1.000000        0.00569207        0.00413926
     224         -1.042424        1.000000        0.01798783        0.01079194
     225         -1.041682        1.000000        0.01857611        0.00703409
     226         -1.041498        1.000000        0.02322840        0.01810669
     227         -1.040837        1.000000        0.03624822        0.01589784
     228         -1.040496        1.000000        0.00421275        0.00284823
     229         -1.040151        1.000000        0.01247529        0.00868249
     230         -1.039686        1.000000        0.00392975        0.00199581
     231         -1.038961        1.000000        0.00639142        0.00398014
     232         -1.038553        1.000000        0.00372805        0.00187964
     233         -1.038476        1.000000        0.00797151        0.00458155
     234         -1.038152        1.000000        0.00124214        0.00086785
     235         -1.038041        1.000000        0.00034878        0.00035274
     236         -1.036855        1.000000        0.01109822        0.00778669
     237         -1.036488        1.000000        0.01008493        0.00576884
     238         -1.036186        1.000000        0.00130204        0.00112593
     239         -1.036068        1.000000        0.00128770        0.00076290
     240         -1.035757        1.000000        0.00717294        0.00361238
     241         -1.035291        1.000000        0.01055600        0.00603390
     242         -1.035048        1.000000        0.00184489        0.00109159
     243         -1.035000        1.000000        0.00132975        0.00079701
     244         -1.034454        1.000000        0.00305745        0.00229333
     245         -1.034219        1.000000        0.00569650        0.00371944
     246         -1.033874        1.000000        0.00959790        0.00825490
     247         -1.033507        1.000000        0.00058961        0.00044293
     248         -1.033219        1.000000        0.00869884        0.00752179
     249         -1.033056        1.000000        0.00427115        0.00322041
     250         -1.032307        1.000000        0.00531995        0.00426471
     251         -1.031324        1.000000        0.01586325        0.01131677
     252         -1.031144        1.000000        0.00402216        0.00367216
     253         -1.030643        1.000000        0.00444392        0.00614974
     254         -1.030284        1.000000        0.00479625        0.00312781
     255         -1.030062        1.000000        0.00252735        0.00183182
     256         -1.029818        1.000000        0.00269076        0.00191228
     257         -1.028552        1.000000        0.00028469        0.00061231
     258         -1.027578        1.000000        0.00354273        0.00295169
     259         -1.027121        1.000000        0.00190341        0.00172484
     260         -1.026880        1.000000        0.00893464        0.00990101
     261         -1.026226        1.000000        0.00147375        0.00254093
     262         -1.025765        1.000000        0.00295490        0.00287840
     263         -1.025299        1.000000        0.00069786        0.00058589
     264         -1.025158        1.000000        0.02893568        0.02232005
     265         -1.025007        1.000000        0.02506885        0.02246802
     266         -1.024422        1.000000        0.00532838        0.00639050
     267         -1.023793        1.000000        0.00213229        0.00213971
     268         -1.023594        1.000000        0.13955819        0.11326526
     269         -1.023069        1.000000        0.01132774        0.01651830
     270         -1.022603        1.000000        0.00475739        0.00692085
     271         -1.022074        1.000000        0.00329986        0.00413834
     272         -1.021695        1.000000        0.00246802        0.00276237
     273         -1.021372        1.000000        0.00013753        0.00010884
     274         -1.021076        1.000000        0.01261614        0.00948239
     275         -1.019492        1.000000        0.00320948        0.00559259
     276         -1.018003        1.000000        0.00009487        0.00015120
     277         -1.016408        1.000000        0.00556920        0.00400168
     278         -1.016278        1.000000        0.00068726        0.00063318
     279         -1.015338        1.000000        0.00006788        0.00008542
     280         -1.013851        1.000000        0.00000933        0.00001512
     281         -1.010223        1.000000        0.00134511        0.00185547
     282         -1.009666        1.000000        0.00000022        0.00000022
     283         -1.007726        1.000000        0.02220556        0.01122563
     284         -1.007300        1.000000        0.00228329        0.00123029
     285         -1.006916        1.000000        0.00000906        0.00000499
     286         -0.889442        1.000000        0.00031541        0.00456874
     287         -0.869424        1.000000        0.00024484        0.00277737
     288         -0.867225        1.000000        0.00038497        0.00409457
     289         -0.864755        1.000000        0.00054033        0.00431554
     290         -0.860947        1.000000        0.00030220        0.00337315
     291         -0.846899        1.000000        0.00074311        0.00418537
     292         -0.844423        1.000000        0.00022799        0.00190952
     293         -0.843782        1.000000        0.00025511        0.00234933
     294         -0.840445        1.000000        0.00028830        0.00257505
     295         -0.821748        1.000000        0.00082171        0.00324340
     296         -0.818927        1.000000        0.00036260        0.00170262
     297         -0.814033        1.000000        0.00086266        0.00512791
     298         -0.808071        1.000000        0.00059088        0.00325011
     299         -0.807076        1.000000        0.00049667        0.00238714
     300         -0.806003        1.000000        0.00056463        0.00230119
     301         -0.805433        1.000000        0.00038529        0.00215246
     302         -0.803208        1.000000        0.00057963        0.00273829
     303         -0.802271        1.000000        0.00080136        0.00359151
     304         -0.801014        1.000000        0.00010807        0.00140124
     305         -0.800419        1.000000        0.00028781        0.00130139
     306         -0.800163        1.000000        0.00032083        0.00195425
     307         -0.798966        1.000000        0.00018300        0.00110333
     308         -0.796270        1.000000        0.00037991        0.00165629
     309         -0.795746        1.000000        0.00020941        0.00153180
     310         -0.794333        1.000000        0.00063303        0.00271886
     311         -0.792293        1.000000        0.00028446        0.00201288
     312         -0.791548        1.000000        0.00057779        0.00227202
     313         -0.790603        1.000000        0.00037862        0.00154187
     314         -0.790424        1.000000        0.00035274        0.00130590
     315         -0.789930        1.000000        0.00063374        0.00235606
     316         -0.788450        1.000000        0.00016164        0.00100125
     317         -0.787526        1.000000        0.00016434        0.00092185
     318         -0.786788        1.000000        0.00017298        0.00077285
     319         -0.781836        1.000000        0.00031051        0.00118836
     320         -0.780998        1.000000        0.00027877        0.00106834
     321         -0.780477        1.000000        0.00014151        0.00068286
     322         -0.779060        1.000000        0.00048392        0.00156343
     323         -0.778943        1.000000        0.00021343        0.00082203
     324         -0.777233        1.000000        0.00010324        0.00083753
     325         -0.775897        1.000000        0.00025805        0.00086600
     326         -0.774887        1.000000        0.00041577        0.00132006
     327         -0.773671        1.000000        0.00012232        0.00054853
     328         -0.773422        1.000000        0.00014759        0.00051746
     329         -0.772414        1.000000        0.00038403        0.00120965
     330         -0.771266        1.000000        0.00017028        0.00063546
     331         -0.770604        1.000000        0.00015506        0.00059987
     332         -0.769886        1.000000        0.00017340        0.00068448
     333         -0.769439        1.000000        0.00010061        0.00035873
     334         -0.769009        1.000000        0.00010601        0.00049115
     335         -0.767483        1.000000        0.00010521        0.00044160
     336         -0.766717        1.000000        0.00022226        0.00097834
     337         -0.765490        1.000000        0.00021434        0.00082838
     338         -0.763700        1.000000        0.00014461        0.00050751
     339         -0.762625        1.000000        0.00010472        0.00034391
     340         -0.761653        1.000000        0.00003646        0.00021957
     341         -0.761196        1.000000        0.00032100        0.00096079
     342         -0.759265        1.000000        0.00014555        0.00041028
     343         -0.758410        1.000000        0.00032412        0.00101132
     344         -0.755260        1.000000        0.00011969        0.00033880
     345         -0.754586        1.000000        0.00001166        0.00003522
     346         -0.703685        1.000000        0.00004878        0.00004888
     347         -0.693847        1.000000        0.00007958        0.00007016
     348         -0.690060        1.000000        0.00011653        0.00009976
     349         -0.688902        1.000000        0.00006252        0.00005567
     350         -0.684111        1.000000        0.00013781        0.00015831
     351         -0.681092        1.000000        0.00012024        0.00008876
     352         -0.678905        1.000000        0.00026145        0.00017216
     353         -0.676982        1.000000        0.00011147        0.00010789
     354         -0.673929        1.000000        0.00018637        0.00014432
     355         -0.673106        1.000000        0.00012963        0.00011534
     356         -0.670728        1.000000        0.00026507        0.00021114
     357         -0.670092        1.000000        0.00015298        0.00016479
     358         -0.669168        1.000000        0.00013696        0.00014877
     359         -0.667801        1.000000        0.00024928        0.00017561
     360         -0.665884        1.000000        0.00017241        0.00013055
     361         -0.664702        1.000000        0.00030021        0.00027570
     362         -0.662263        1.000000        0.00019240        0.00017972
     363         -0.660875        1.000000        0.00036035        0.00026024
     364         -0.658191        1.000000        0.00019024        0.00017904
     365         -0.657373        1.000000        0.00015997        0.00013943
     366         -0.655967        1.000000        0.00033623        0.00030727
     367         -0.655536        1.000000        0.00029165        0.00041296
     368         -0.653752        1.000000        0.00052747        0.00048687
     369         -0.651127        1.000000        0.00015084        0.00010454
     370         -0.648938        1.000000        0.00032635        0.00016933
     371         -0.647875        1.000000        0.00027513        0.00030818
     372         -0.644925        1.000000        0.00052511        0.00040033
     373         -0.644581        1.000000        0.00030946        0.00025580
     374         -0.641910        1.000000        0.00031583        0.00031963
     375         -0.641212        1.000000        0.00036430        0.00033712
     376         -0.639876        1.000000        0.00024494        0.00021305
     377         -0.637901        1.000000        0.00075779        0.00058122