# Projected DOS for list 158 of 1 atoms, at iteration step i = 0, E(Fermi) =    -0.245567 a.u.
#     MO Eigenvalue [a.u.]      Occupation                 s                 p                 d
       1         -3.122063        1.000000        0.00000000        0.00000000        0.00000000
       2         -3.121278        1.000000        0.00000000        0.00000000        0.00000000
       3         -3.121021        1.000000        0.00000000        0.00000000        0.00000000
       4         -3.120578        1.000000        0.00000000        0.00000000        0.00000000
       5         -3.120271        1.000000        0.00000000        0.00000000        0.00000000
       6         -3.119857        1.000000        0.00000000        0.00000000        0.00000000
       7         -3.119652        1.000000        0.00000000        0.00000000        0.00000000
       8         -3.119624        1.000000        0.00000000        0.00000000        0.00000000
       9         -3.119219        1.000000        0.00000000        0.00000000        0.00000000
      10         -3.119023        1.000000        0.00000000        0.00000000        0.00000000
      11         -3.118913        1.000000        0.00000000        0.00000000        0.00000000
      12         -3.118874        1.000000        0.00000000        0.00000000        0.00000000
      13         -3.118317        1.000000        0.00000000        0.00000000        0.00000000
      14         -3.118249        1.000000        0.00000000        0.00000000        0.00000000
      15         -3.117895        1.000000        0.00000000        0.00000000        0.00000000
      16         -3.117383        1.000000        0.00000000        0.00000000        0.00000000
      17         -3.117165        1.000000        0.00000000        0.00000000        0.00000000
      18         -3.116815        1.000000        0.00000000        0.00000000        0.00000000
      19         -3.116436        1.000000        0.00000000        0.00000000        0.00000000
      20         -3.116021        1.000000        0.00000000        0.00000000        0.00000000
      21         -3.115852        1.000000        0.00000000        0.00000000        0.00000000
      22         -3.115668        1.000000        0.00000000        0.00000000        0.00000000
      23         -3.115368        1.000000        0.00000000        0.00000000        0.00000000
      24         -3.115339        1.000000        0.00000000        0.00000000        0.00000000
      25         -3.115041        1.000000        0.00000000        0.00000000        0.00000000
      26         -3.114366        1.000000        0.00000000        0.00000000        0.00000000
      27         -3.113951        1.000000        0.00000000        0.00000000        0.00000000
      28         -3.113764        1.000000        0.00000000        0.00000000        0.00000000
      29         -3.112534        1.000000        0.00000000        0.00000000        0.00000000
      30         -3.111679        1.000000        0.00000000        0.00000000        0.00000000
      31         -1.784233        1.000000        0.00000000        0.00000000        0.00000000
      32         -1.782870        1.000000        0.00000000        0.00000000        0.00000000
      33         -1.782324        1.000000        0.00000000        0.00000000        0.00000000
      34         -1.782130        1.000000        0.00000000        0.00000000        0.00000000
      35         -1.781736        1.000000        0.00000000        0.00000000        0.00000000
      36         -1.781230        1.000000        0.00000000        0.00000000        0.00000000
      37         -1.780847        1.000000        0.00000000        0.00000000        0.00000000
      38         -1.780487        1.000000        0.00000000        0.00000000        0.00000000
      39         -1.780184        1.000000        0.00000000        0.00000000        0.00000000
      40         -1.779550        1.000000        0.00000000        0.00000000        0.00000000
      41         -1.779259        1.000000        0.00000000        0.00000000        0.00000000
      42         -1.778921        1.000000        0.00000000        0.00000000        0.00000000
      43         -1.778390        1.000000        0.00000000        0.00000000        0.00000000
      44         -1.778140        1.000000        0.00000000        0.00000000        0.00000000
      45         -1.777912        1.000000        0.00000000        0.00000000        0.00000000
      46         -1.777514        1.000000        0.00000000        0.00000000        0.00000000
      47         -1.777362        1.000000        0.00000000        0.00000000        0.00000000
      48         -1.776787        1.000000        0.00000000        0.00000000        0.00000000
      49         -1.776537        1.000000        0.00000000        0.00000000        0.00000000
      50         -1.776457        1.000000        0.00000000        0.00000000        0.00000000
      51         -1.776029        1.000000        0.00000000        0.00000000        0.00000000
      52         -1.774038        1.000000        0.00000000        0.00000000        0.00000000
      53         -1.773797        1.000000        0.00000000        0.00000000        0.00000000
      54         -1.773665        1.000000        0.00000000        0.00000000        0.00000000
      55         -1.772725        1.000000        0.00000000        0.00000000        0.00000000
      56         -1.772546        1.000000        0.00000000        0.00000000        0.00000000
      57         -1.772041        1.000000        0.00000000        0.00000000        0.00000000
      58         -1.771662        1.000000        0.00000000        0.00000000        0.00000000
      59         -1.771364        1.000000        0.00000000        0.00000000        0.00000000
      60         -1.770813        1.000000        0.00000000        0.00000000        0.00000000
      61         -1.770640        1.000000        0.00000000        0.00000000        0.00000000
      62         -1.770449        1.000000        0.00000000        0.00000000        0.00000000
      63         -1.770188        1.000000        0.00000000        0.00000000        0.00000000
      64         -1.770126        1.000000        0.00000000        0.00000000        0.00000000
      65         -1.769991        1.000000        0.00000000        0.00000000        0.00000000
      66         -1.769845        1.000000        0.00000000        0.00000000        0.00000000
      67         -1.769763        1.000000        0.00000000        0.00000000        0.00000000
      68         -1.769661        1.000000        0.00000000        0.00000000        0.00000000
      69         -1.769465        1.000000        0.00000000        0.00000000        0.00000000
      70         -1.769351        1.000000        0.00000000        0.00000000        0.00000000
      71         -1.769328        1.000000        0.00000000        0.00000000        0.00000000
      72         -1.769216        1.000000        0.00000000        0.00000000        0.00000000
      73         -1.769129        1.000000        0.00000000        0.00000000        0.00000000
      74         -1.769070        1.000000        0.00000000        0.00000000        0.00000000
      75         -1.768941        1.000000        0.00000000        0.00000000        0.00000000
      76         -1.768822        1.000000        0.00000000        0.00000000        0.00000000
      77         -1.768707        1.000000        0.00000000        0.00000000        0.00000000
      78         -1.768585        1.000000        0.00000000        0.00000000        0.00000000
      79         -1.768439        1.000000        0.00000000        0.00000000        0.00000000
      80         -1.768329        1.000000        0.00000000        0.00000000        0.00000000
      81         -1.768089        1.000000        0.00000000        0.00000000        0.00000000
      82         -1.767883        1.000000        0.00000000        0.00000000        0.00000000
      83         -1.767662        1.000000        0.00000000        0.00000000        0.00000000
      84         -1.767495        1.000000        0.00000000        0.00000000        0.00000000
      85         -1.767311        1.000000        0.00000000        0.00000000        0.00000000
      86         -1.767266        1.000000        0.00000000        0.00000000        0.00000000
      87         -1.767060        1.000000        0.00000000        0.00000000        0.00000000
      88         -1.767025        1.000000        0.00000000        0.00000000        0.00000000
      89         -1.766872        1.000000        0.00000000        0.00000000        0.00000000
      90         -1.766524        1.000000        0.00000000        0.00000000        0.00000000
      91         -1.766405        1.000000        0.00000000        0.00000000        0.00000000
      92         -1.766254        1.000000        0.00000000        0.00000000        0.00000000
      93         -1.766123        1.000000        0.00000000        0.00000000        0.00000000
      94         -1.765857        1.000000        0.00000000        0.00000000        0.00000000
      95         -1.765515        1.000000        0.00000000        0.00000000        0.00000000
      96         -1.765181        1.000000        0.00000000        0.00000000        0.00000000
      97         -1.765105        1.000000        0.00000000        0.00000000        0.00000000
      98         -1.764967        1.000000        0.00000000        0.00000000        0.00000000
      99         -1.764710        1.000000        0.00000000        0.00000000        0.00000000
     100         -1.764440        1.000000        0.00000000        0.00000000        0.00000000
     101         -1.764248        1.000000        0.00000000        0.00000000        0.00000000
     102         -1.763945        1.000000        0.00000000        0.00000000        0.00000000
     103         -1.763804        1.000000        0.00000000        0.00000000        0.00000000
     104         -1.763351        1.000000        0.00000000        0.00000000        0.00000000
     105         -1.763205        1.000000        0.00000000        0.00000000        0.00000000
     106         -1.763107        1.000000        0.00000000        0.00000000        0.00000000
     107         -1.762531        1.000000        0.00000000        0.00000000        0.00000000
     108         -1.762343        1.000000        0.00000000        0.00000000        0.00000000
     109         -1.761453        1.000000        0.00000000        0.00000000        0.00000000
     110         -1.760969        1.000000        0.00000000        0.00000000        0.00000000
     111         -1.760481        1.000000        0.00000000        0.00000000        0.00000000
     112         -1.760009        1.000000        0.00000000        0.00000000        0.00000000
     113         -1.759531        1.000000        0.00000000        0.00000000        0.00000000
     114         -1.759105        1.000000        0.00000000        0.00000000        0.00000000
     115         -1.758777        1.000000        0.00000000        0.00000000        0.00000000
     116         -1.757462        1.000000        0.00000000        0.00000000        0.00000000
     117         -1.756221        1.000000        0.00000000        0.00000000        0.00000000
     118         -1.755333        1.000000        0.00000000        0.00000000        0.00000000
     119         -1.754385        1.000000        0.00000000        0.00000000        0.00000000
     120         -1.752742        1.000000        0.00000000        0.00000000        0.00000000
     121         -1.131181        1.000000        0.00087120        0.00001491        0.00002871
     122         -1.128658        1.000000        0.00001169        0.00009886        0.00000355
     123         -1.128000        1.000000        0.00000571        0.00000590        0.00000014
     124         -1.126427        1.000000        0.00003339        0.00000333        0.00000100
     125         -1.120469        1.000000        0.00471465        0.00003007        0.00012481
     126         -1.119202        1.000000        0.00003964        0.00015132        0.00000166
     127         -1.117081        1.000000        0.01142961        0.00006556        0.00024836
     128         -1.116156        1.000000        0.00424632        0.00009459        0.00009614
     129         -1.115054        1.000000        0.00006087        0.00027311        0.00000450
     130         -1.111818        1.000000        0.00178505        0.00054222        0.00002806
     131         -1.111610        1.000000        0.04670432        0.00090917        0.00091403
     132         -1.110976        1.000000        0.00001603        0.00001229        0.00003091
     133         -1.109888        1.000000        0.00214292        0.00041131        0.00004027
     134         -1.108601        1.000000        0.00127840        0.00007205        0.00002062
     135         -1.108036        1.000000        0.00365685        0.00008004        0.00005451
     136         -1.107349        1.000000        0.00575170        0.00088461        0.00009541
     137         -1.106797        1.000000        0.00201822        0.00022066        0.00002815
     138         -1.106077        1.000000        0.00146256        0.00025547        0.00003186
     139         -1.104162        1.000000        0.00350960        0.00000573        0.00006383
     140         -1.102892        1.000000        0.00649528        0.00001631        0.00010984
     141         -1.102196        1.000000        0.00964744        0.00005376        0.00013186
     142         -1.101581        1.000000        0.00161354        0.00025285        0.00003971
     143         -1.101215        1.000000        0.02516464        0.00005719        0.00036945
     144         -1.099602        1.000000        0.00908377        0.00062258        0.00012546
     145         -1.098107        1.000000        0.00441085        0.00078646        0.00008772
     146         -1.097450        1.000000        0.01328598        0.00007113        0.00013300
     147         -1.097046        1.000000        0.00035451        0.00002957        0.00000955
     148         -1.095795        1.000000        0.00510831        0.00059272        0.00006117
     149         -1.095192        1.000000        0.00004026        0.00010178        0.00000298
     150         -1.093515        1.000000        0.00489263        0.00015549        0.00003757
     151         -1.093123        1.000000        0.01186600        0.00030786        0.00013563
     152         -1.092614        1.000000        0.01369439        0.00004289        0.00015199
     153         -1.091821        1.000000        0.00272843        0.00182909        0.00004382
     154         -1.090761        1.000000        0.00385501        0.00028366        0.00004958
     155         -1.090597        1.000000        0.00486034        0.00011088        0.00004772
     156         -1.089544        1.000000        0.00000336        0.00012302        0.00000649
     157         -1.088154        1.000000        0.00039556        0.00003755        0.00000498
     158         -1.086960        1.000000        0.00009573        0.00000098        0.00000199
     159         -1.086718        1.000000        0.01125913        0.00007113        0.00008378
     160         -1.085525        1.000000        0.00005577        0.00073168        0.00003249
     161         -1.084219        1.000000        0.00829948        0.00031655        0.00006122
     162         -1.082734        1.000000        0.00023157        0.00002194        0.00001808
     163         -1.082381        1.000000        0.00044170        0.00009830        0.00000762
     164         -1.080807        1.000000        0.00234918        0.00016349        0.00002059
     165         -1.080293        1.000000        0.00324570        0.00011910        0.00002474
     166         -1.079453        1.000000        0.01187323        0.00004066        0.00006606
     167         -1.078246        1.000000        0.00458549        0.00001264        0.00002867
     168         -1.077774        1.000000        0.00022211        0.00093714        0.00000280
     169         -1.077143        1.000000        0.00011988        0.00016650        0.00001981
     170         -1.076426        1.000000        0.01216827        0.00035426        0.00006134
     171         -1.076145        1.000000        0.00551964        0.00000791        0.00002796
     172         -1.074526        1.000000        0.00762772        0.00002221        0.00002768
     173         -1.074368        1.000000        0.00228743        0.00026079        0.00000634
     174         -1.073652        1.000000        0.00247958        0.00076634        0.00001968
     175         -1.072808        1.000000        0.00002896        0.00001572        0.00003408
     176         -1.072152        1.000000        0.02016861        0.00052434        0.00007051
     177         -1.071192        1.000000        0.00060566        0.00038212        0.00000578
     178         -1.070444        1.000000        0.00251020        0.00003485        0.00001632
     179         -1.070141        1.000000        0.00085770        0.00004769        0.00001269
     180         -1.069416        1.000000        0.00040541        0.00009194        0.00002471
     181         -1.069179        1.000000        0.00344581        0.00061135        0.00004227
     182         -1.067610        1.000000        0.01047831        0.00005255        0.00003488
     183         -1.066240        1.000000        0.01099403        0.00004910        0.00003625
     184         -1.065124        1.000000        0.00935996        0.00156552        0.00001765
     185         -1.064565        1.000000        0.00285993        0.00043026        0.00004964
     186         -1.063575        1.000000        0.00001179        0.00022476        0.00001033
     187         -1.062901        1.000000        0.00008398        0.00000432        0.00000050
     188         -1.062274        1.000000        0.00166141        0.00012154        0.00000835
     189         -1.061481        1.000000        0.00741419        0.00000908        0.00001364
     190         -1.061312        1.000000        0.00013180        0.00115889        0.00000023
     191         -1.060592        1.000000        0.00397620        0.00021283        0.00001125
     192         -1.059297        1.000000        0.00002929        0.00010558        0.00001430
     193         -1.058643        1.000000        0.00185218        0.00046666        0.00001208
     194         -1.058262        1.000000        0.00035017        0.00090620        0.00000771
     195         -1.057127        1.000000        0.00115946        0.00010628        0.00001843
     196         -1.056224        1.000000        0.00007918        0.00021696        0.00000891
     197         -1.056050        1.000000        0.00000058        0.00001091        0.00000143
     198         -1.054881        1.000000        0.00180071        0.00013343        0.00002045
     199         -1.054669        1.000000        0.00073988        0.00013715        0.00000417
     200         -1.053605        1.000000        0.00035509        0.00000151        0.00000427
     201         -1.053457        1.000000        0.00065489        0.00004498        0.00000021
     202         -1.052589        1.000000        0.00040440        0.00039271        0.00005492
     203         -1.052089        1.000000        0.00634167        0.00000830        0.00004017
     204         -1.051299        1.000000        0.00177113        0.00007281        0.00000474
     205         -1.050676        1.000000        0.00166380        0.00002162        0.00001447
     206         -1.050307        1.000000        0.00090131        0.00003679        0.00000426
     207         -1.049921        1.000000        0.00108304        0.00002380        0.00000112
     208         -1.049485        1.000000        0.00068815        0.00014007        0.00000364
     209         -1.049126        1.000000        0.01080679        0.00004995        0.00001383
     210         -1.048445        1.000000        0.00003259        0.00000159        0.00000721
     211         -1.048201        1.000000        0.00066866        0.00001609        0.00003419
     212         -1.047911        1.000000        0.00286050        0.00000930        0.00000143
     213         -1.047620        1.000000        0.01185920        0.00003205        0.00002055
     214         -1.046931        1.000000        0.03141734        0.00018345        0.00006078
     215         -1.046733        1.000000        0.02827703        0.00006124        0.00003074
     216         -1.046634        1.000000        0.00174745        0.00003857        0.00001636
     217         -1.045930        1.000000        0.00337586        0.00002806        0.00005366
     218         -1.045069        1.000000        0.00747789        0.00013250        0.00006685
     219         -1.044350        1.000000        0.00004155        0.00010548        0.00010098
     220         -1.043623        1.000000        0.00016137        0.00003807        0.00003135
     221         -1.043421        1.000000        0.00258051        0.00000904        0.00000388
     222         -1.042778        1.000000        0.00082207        0.00008325        0.00001167
     223         -1.042701        1.000000        0.00836483        0.00001780        0.00008545
     224         -1.042424        1.000000        0.01203238        0.00005502        0.00000730
     225         -1.041682        1.000000        0.00000053        0.00000380        0.00000684
     226         -1.041498        1.000000        0.00034089        0.00002392        0.00001659
     227         -1.040837        1.000000        0.00039409        0.00001237        0.00001539
     228         -1.040496        1.000000        0.00047176        0.00016864        0.00004980
     229         -1.040151        1.000000        0.00030113        0.00000450        0.00000083
     230         -1.039686        1.000000        0.00024554        0.00020053        0.00005838
     231         -1.038961        1.000000        0.00341800        0.00012924        0.00005502
     232         -1.038553        1.000000        0.00002723        0.00008764        0.00002839
     233         -1.038476        1.000000        0.00028986        0.00004156        0.00001044
     234         -1.038152        1.000000        0.02836983        0.00025802        0.00007236
     235         -1.038041        1.000000        0.00056789        0.00010877        0.00008707
     236         -1.036855        1.000000        0.00001843        0.00007478        0.00003154
     237         -1.036488        1.000000        0.00062409        0.00011099        0.00004796
     238         -1.036186        1.000000        0.00001888        0.00008020        0.00002154
     239         -1.036068        1.000000        0.00034599        0.00004341        0.00007116
     240         -1.035757        1.000000        0.00000656        0.00003079        0.00003970
     241         -1.035291        1.000000        0.00013688        0.00001075        0.00004726
     242         -1.035048        1.000000        0.00027178        0.00009679        0.00012095
     243         -1.035000        1.000000        0.00000138        0.00012789        0.00001136
     244         -1.034454        1.000000        0.00018091        0.00015451        0.00003613
     245         -1.034219        1.000000        0.00009412        0.00014186        0.00003394
     246         -1.033874        1.000000        0.00007215        0.00009773        0.00001037
     247         -1.033507        1.000000        0.00037236        0.00004859        0.00000575
     248         -1.033219        1.000000        0.00274775        0.00004493        0.00001660
     249         -1.033056        1.000000        0.00050003        0.00000915        0.00002304
     250         -1.032307        1.000000        0.00008061        0.00019714        0.00006191
     251         -1.031324        1.000000        0.00000169        0.00000946        0.00000791
     252         -1.031144        1.000000        0.00000015        0.00000312        0.00000353
     253         -1.030643        1.000000        0.00157030        0.00004338        0.00000991
     254         -1.030284        1.000000        0.00312984        0.00003574        0.00010612
     255         -1.030062        1.000000        0.00347280        0.00009022        0.00012622
     256         -1.029818        1.000000        0.00003087        0.00002531        0.00000235
     257         -1.028552        1.000000        0.00039339        0.00000189        0.00000509
     258         -1.027578        1.000000        0.00000378        0.00000249        0.00000113
     259         -1.027121        1.000000        0.00328192        0.00043097        0.00019993
     260         -1.026880        1.000000        0.00019941        0.00000756        0.00001082
     261         -1.026226        1.000000        0.00000551        0.00001561        0.00000439
     262         -1.025765        1.000000        0.00003721        0.00000481        0.00000063
     263         -1.025299        1.000000        0.00078233        0.00003375        0.00001492
     264         -1.025158        1.000000        0.00015181        0.00000516        0.00000273
     265         -1.025007        1.000000        0.00000267        0.00000731        0.00000493
     266         -1.024422        1.000000        0.00003140        0.00000204        0.00000142
     267         -1.023793        1.000000        0.00003144        0.00000345        0.00000029
     268         -1.023594        1.000000        0.00001556        0.00000080        0.00000049
     269         -1.023069        1.000000        0.00005808        0.00000363        0.00000227
     270         -1.022603        1.000000        0.00001502        0.00001269        0.00000401
     271         -1.022074        1.000000        0.00000249        0.00000341        0.00000125
     272         -1.021695        1.000000        0.00003173        0.00000563        0.00000037
     273         -1.021372        1.000000        0.00001235        0.00000059        0.00000038
     274         -1.021076        1.000000        0.00000006        0.00000219        0.00000289
     275         -1.019492        1.000000        0.00001436        0.00000113        0.00000105
     276         -1.018003        1.000000        0.00002410        0.00000026        0.00000039
     277         -1.016408        1.000000        0.00005176        0.00001918        0.00002783
     278         -1.016278        1.000000        0.00016457        0.00001011        0.00000186
     279         -1.015338        1.000000        0.00000016        0.00000066        0.00000038
     280         -1.013851        1.000000        0.00000045        0.00000506        0.00000154
     281         -1.010223        1.000000        0.00022430        0.00004116        0.00002052
     282         -1.009666        1.000000        0.00000110        0.00000023        0.00000008
     283         -1.007726        1.000000        0.00060780        0.00010586        0.00005215
     284         -1.007300        1.000000        0.00706642        0.00131647        0.00063446
     285         -1.006916        1.000000        0.00005712        0.00000825        0.00000495
     286         -0.889442        1.000000        0.00000000        0.00000000        0.00000000
     287         -0.869424        1.000000        0.00000000        0.00000000        0.00000000
     288         -0.867225        1.000000        0.00000000        0.00000000        0.00000000
     289         -0.864755        1.000000        0.00000000        0.00000000        0.00000000
     290         -0.860947        1.000000        0.00000000        0.00000000        0.00000000
     291         -0.846899        1.000000        0.00000000        0.00000000        0.00000000
     292         -0.844423        1.000000        0.00000000        0.00000000        0.00000000
     293         -0.843782        1.000000        0.00000000        0.00000000        0.00000000
     294         -0.840445        1.000000        0.00000000        0.00000000        0.00000000
     295         -0.821748        1.000000        0.00000000        0.00000000        0.00000000
     296         -0.818927        1.000000        0.00000000        0.00000000        0.00000000
     297         -0.814033        1.000000        0.00000000        0.00000000        0.00000000
     298         -0.808071        1.000000        0.00000000        0.00000000        0.00000000
     299         -0.807076        1.000000        0.00000000        0.00000000        0.00000000
     300         -0.806003        1.000000        0.00000000        0.00000000        0.00000000
     301         -0.805433        1.000000        0.00000000        0.00000000        0.00000000
     302         -0.803208        1.000000        0.00000000        0.00000000        0.00000000
     303         -0.802271        1.000000        0.00000000        0.00000000        0.00000000
     304         -0.801014        1.000000        0.00000000        0.00000000        0.00000000
     305         -0.800419        1.000000        0.00000000        0.00000000        0.00000000
     306         -0.800163        1.000000        0.00000000        0.00000000        0.00000000
     307         -0.798966        1.000000        0.00000000        0.00000000        0.00000000