# Projected DOS for list 83 of 1 atoms, at iteration step i = 0, E(Fermi) =    -0.245567 a.u.
#     MO Eigenvalue [a.u.]      Occupation                 s                 p                 d
       1         -3.122063        1.000000        0.00000000        0.00000000        0.00000000
       2         -3.121278        1.000000        0.00000000        0.00000000        0.00000000
       3         -3.121021        1.000000        0.00000000        0.00000000        0.00000000
       4         -3.120578        1.000000        0.00000000        0.00000000        0.00000000
       5         -3.120271        1.000000        0.00000000        0.00000000        0.00000000
       6         -3.119857        1.000000        0.00000000        0.00000000        0.00000000
       7         -3.119652        1.000000        0.00000000        0.00000000        0.00000000
       8         -3.119624        1.000000        0.00000000        0.00000000        0.00000000
       9         -3.119219        1.000000        0.00000000        0.00000000        0.00000000
      10         -3.119023        1.000000        0.00000000        0.00000000        0.00000000
      11         -3.118913        1.000000        0.00000000        0.00000000        0.00000000
      12         -3.118874        1.000000        0.00000000        0.00000000        0.00000000
      13         -3.118317        1.000000        0.00000000        0.00000000        0.00000000
      14         -3.118249        1.000000        0.00000000        0.00000000        0.00000000
      15         -3.117895        1.000000        0.00000000        0.00000000        0.00000000
      16         -3.117383        1.000000        0.00000000        0.00000000        0.00000000
      17         -3.117165        1.000000        0.00000000        0.00000000        0.00000000
      18         -3.116815        1.000000        0.00000000        0.00000000        0.00000000
      19         -3.116436        1.000000        0.00000000        0.00000000        0.00000000
      20         -3.116021        1.000000        0.00000000        0.00000000        0.00000000
      21         -3.115852        1.000000        0.00000000        0.00000000        0.00000000
      22         -3.115668        1.000000        0.00000000        0.00000000        0.00000000
      23         -3.115368        1.000000        0.00000000        0.00000000        0.00000000
      24         -3.115339        1.000000        0.00000000        0.00000000        0.00000000
      25         -3.115041        1.000000        0.00000000        0.00000000        0.00000000
      26         -3.114366        1.000000        0.00000000        0.00000000        0.00000000
      27         -3.113951        1.000000        0.00000000        0.00000000        0.00000000
      28         -3.113764        1.000000        0.00000000        0.00000000        0.00000000
      29         -3.112534        1.000000        0.00000000        0.00000000        0.00000000
      30         -3.111679        1.000000        0.00000000        0.00000000        0.00000000
      31         -1.784233        1.000000        0.00000000        0.00000000        0.00000000
      32         -1.782870        1.000000        0.00000000        0.00000000        0.00000000
      33         -1.782324        1.000000        0.00000000        0.00000000        0.00000000
      34         -1.782130        1.000000        0.00000000        0.00000000        0.00000000
      35         -1.781736        1.000000        0.00000000        0.00000000        0.00000000
      36         -1.781230        1.000000        0.00000000        0.00000000        0.00000000
      37         -1.780847        1.000000        0.00000000        0.00000000        0.00000000
      38         -1.780487        1.000000        0.00000000        0.00000000        0.00000000
      39         -1.780184        1.000000        0.00000000        0.00000000        0.00000000
      40         -1.779550        1.000000        0.00000000        0.00000000        0.00000000
      41         -1.779259        1.000000        0.00000000        0.00000000        0.00000000
      42         -1.778921        1.000000        0.00000000        0.00000000        0.00000000
      43         -1.778390        1.000000        0.00000000        0.00000000        0.00000000
      44         -1.778140        1.000000        0.00000000        0.00000000        0.00000000
      45         -1.777912        1.000000        0.00000000        0.00000000        0.00000000
      46         -1.777514        1.000000        0.00000000        0.00000000        0.00000000
      47         -1.777362        1.000000        0.00000000        0.00000000        0.00000000
      48         -1.776787        1.000000        0.00000000        0.00000000        0.00000000
      49         -1.776537        1.000000        0.00000000        0.00000000        0.00000000
      50         -1.776457        1.000000        0.00000000        0.00000000        0.00000000
      51         -1.776029        1.000000        0.00000000        0.00000000        0.00000000
      52         -1.774038        1.000000        0.00000000        0.00000000        0.00000000
      53         -1.773797        1.000000        0.00000000        0.00000000        0.00000000
      54         -1.773665        1.000000        0.00000000        0.00000000        0.00000000
      55         -1.772725        1.000000        0.00000000        0.00000000        0.00000000
      56         -1.772546        1.000000        0.00000000        0.00000000        0.00000000
      57         -1.772041        1.000000        0.00000000        0.00000000        0.00000000
      58         -1.771662        1.000000        0.00000000        0.00000000        0.00000000
      59         -1.771364        1.000000        0.00000000        0.00000000        0.00000000
      60         -1.770813        1.000000        0.00000000        0.00000000        0.00000000
      61         -1.770640        1.000000        0.00000000        0.00000000        0.00000000
      62         -1.770449        1.000000        0.00000000        0.00000000        0.00000000
      63         -1.770188        1.000000        0.00000000        0.00000000        0.00000000
      64         -1.770126        1.000000        0.00000000        0.00000000        0.00000000
      65         -1.769991        1.000000        0.00000000        0.00000000        0.00000000
      66         -1.769845        1.000000        0.00000000        0.00000000        0.00000000
      67         -1.769763        1.000000        0.00000000        0.00000000        0.00000000
      68         -1.769661        1.000000        0.00000000        0.00000000        0.00000000
      69         -1.769465        1.000000        0.00000000        0.00000000        0.00000000
      70         -1.769351        1.000000        0.00000000        0.00000000        0.00000000
      71         -1.769328        1.000000        0.00000000        0.00000000        0.00000000
      72         -1.769216        1.000000        0.00000000        0.00000000        0.00000000
      73         -1.769129        1.000000        0.00000000        0.00000000        0.00000000
      74         -1.769070        1.000000        0.00000000        0.00000000        0.00000000
      75         -1.768941        1.000000        0.00000000        0.00000000        0.00000000
      76         -1.768822        1.000000        0.00000000        0.00000000        0.00000000
      77         -1.768707        1.000000        0.00000000        0.00000000        0.00000000
      78         -1.768585        1.000000        0.00000000        0.00000000        0.00000000
      79         -1.768439        1.000000        0.00000000        0.00000000        0.00000000
      80         -1.768329        1.000000        0.00000000        0.00000000        0.00000000
      81         -1.768089        1.000000        0.00000000        0.00000000        0.00000000
      82         -1.767883        1.000000        0.00000000        0.00000000        0.00000000
      83         -1.767662        1.000000        0.00000000        0.00000000        0.00000000
      84         -1.767495        1.000000        0.00000000        0.00000000        0.00000000
      85         -1.767311        1.000000        0.00000000        0.00000000        0.00000000
      86         -1.767266        1.000000        0.00000000        0.00000000        0.00000000
      87         -1.767060        1.000000        0.00000000        0.00000000        0.00000000
      88         -1.767025        1.000000        0.00000000        0.00000000        0.00000000
      89         -1.766872        1.000000        0.00000000        0.00000000        0.00000000
      90         -1.766524        1.000000        0.00000000        0.00000000        0.00000000
      91         -1.766405        1.000000        0.00000000        0.00000000        0.00000000
      92         -1.766254        1.000000        0.00000000        0.00000000        0.00000000
      93         -1.766123        1.000000        0.00000000        0.00000000        0.00000000
      94         -1.765857        1.000000        0.00000000        0.00000000        0.00000000
      95         -1.765515        1.000000        0.00000000        0.00000000        0.00000000
      96         -1.765181        1.000000        0.00000000        0.00000000        0.00000000
      97         -1.765105        1.000000        0.00000000        0.00000000        0.00000000
      98         -1.764967        1.000000        0.00000000        0.00000000        0.00000000
      99         -1.764710        1.000000        0.00000000        0.00000000        0.00000000
     100         -1.764440        1.000000        0.00000000        0.00000000        0.00000000
     101         -1.764248        1.000000        0.00000000        0.00000000        0.00000000
     102         -1.763945        1.000000        0.00000000        0.00000000        0.00000000
     103         -1.763804        1.000000        0.00000000        0.00000000        0.00000000
     104         -1.763351        1.000000        0.00000000        0.00000000        0.00000000
     105         -1.763205        1.000000        0.00000000        0.00000000        0.00000000
     106         -1.763107        1.000000        0.00000000        0.00000000        0.00000000
     107         -1.762531        1.000000        0.00000000        0.00000000        0.00000000
     108         -1.762343        1.000000        0.00000000        0.00000000        0.00000000
     109         -1.761453        1.000000        0.00000000        0.00000000        0.00000000
     110         -1.760969        1.000000        0.00000000        0.00000000        0.00000000
     111         -1.760481        1.000000        0.00000000        0.00000000        0.00000000
     112         -1.760009        1.000000        0.00000000        0.00000000        0.00000000
     113         -1.759531        1.000000        0.00000000        0.00000000        0.00000000
     114         -1.759105        1.000000        0.00000000        0.00000000        0.00000000
     115         -1.758777        1.000000        0.00000000        0.00000000        0.00000000
     116         -1.757462        1.000000        0.00000000        0.00000000        0.00000000
     117         -1.756221        1.000000        0.00000000        0.00000000        0.00000000
     118         -1.755333        1.000000        0.00000000        0.00000000        0.00000000
     119         -1.754385        1.000000        0.00000000        0.00000000        0.00000000
     120         -1.752742        1.000000        0.00000000        0.00000000        0.00000000
     121         -1.131181        1.000000        0.00755041        0.00526377        0.00150255
     122         -1.128658        1.000000        0.00480862        0.00561808        0.00154551
     123         -1.128000        1.000000        0.00001394        0.00039599        0.00008550
     124         -1.126427        1.000000        0.00021344        0.00158799        0.00034449
     125         -1.120469        1.000000        0.00049191        0.00058204        0.00009099
     126         -1.119202        1.000000        0.00105954        0.00004930        0.00003046
     127         -1.117081        1.000000        0.00027771        0.00242089        0.00052461
     128         -1.116156        1.000000        0.00002784        0.00109592        0.00017508
     129         -1.115054        1.000000        0.00225006        0.00169990        0.00054738
     130         -1.111818        1.000000        0.00068307        0.00039388        0.00018398
     131         -1.111610        1.000000        0.00813931        0.00265834        0.00077353
     132         -1.110976        1.000000        0.00004538        0.00053478        0.00020266
     133         -1.109888        1.000000        0.00264353        0.00032626        0.00013225
     134         -1.108601        1.000000        0.00000549        0.00062295        0.00017731
     135         -1.108036        1.000000        0.00178345        0.00032232        0.00012695
     136         -1.107349        1.000000        0.00016864        0.00158580        0.00038880
     137         -1.106797        1.000000        0.00028276        0.00081429        0.00025970
     138         -1.106077        1.000000        0.00119442        0.00062795        0.00012520
     139         -1.104162        1.000000        0.00086325        0.00009960        0.00002112
     140         -1.102892        1.000000        0.00037485        0.00197927        0.00049372
     141         -1.102196        1.000000        0.00025711        0.00297360        0.00069273
     142         -1.101581        1.000000        0.01335887        0.00308980        0.00098995
     143         -1.101215        1.000000        0.00058617        0.00238265        0.00077672
     144         -1.099602        1.000000        0.01295348        0.00023811        0.00020758
     145         -1.098107        1.000000        0.00793785        0.00305245        0.00044359
     146         -1.097450        1.000000        0.00081165        0.00061818        0.00022798
     147         -1.097046        1.000000        0.00972585        0.00089489        0.00018899
     148         -1.095795        1.000000        0.00022106        0.00031627        0.00007807
     149         -1.095192        1.000000        0.00219093        0.00037855        0.00019986
     150         -1.093515        1.000000        0.00000790        0.00053628        0.00026415
     151         -1.093123        1.000000        0.00464451        0.00493232        0.00119993
     152         -1.092614        1.000000        0.00625698        0.00031581        0.00005057
     153         -1.091821        1.000000        0.00028716        0.00145698        0.00044438
     154         -1.090761        1.000000        0.00669912        0.00167018        0.00044623
     155         -1.090597        1.000000        0.00145120        0.00071399        0.00017028
     156         -1.089544        1.000000        0.00006184        0.00008925        0.00002330
     157         -1.088154        1.000000        0.00022793        0.00089008        0.00033599
     158         -1.086960        1.000000        0.00017165        0.00039559        0.00011403
     159         -1.086718        1.000000        0.00282413        0.00123699        0.00035238
     160         -1.085525        1.000000        0.00012628        0.00077343        0.00024167
     161         -1.084219        1.000000        0.00292163        0.00501759        0.00174626
     162         -1.082734        1.000000        0.00112681        0.00072475        0.00027775
     163         -1.082381        1.000000        0.00002768        0.00242736        0.00082752
     164         -1.080807        1.000000        0.00039787        0.00136306        0.00055452
     165         -1.080293        1.000000        0.00000405        0.00104153        0.00032492
     166         -1.079453        1.000000        0.00062202        0.00029619        0.00012335
     167         -1.078246        1.000000        0.00014668        0.00086825        0.00034016
     168         -1.077774        1.000000        0.00209660        0.00735046        0.00250495
     169         -1.077143        1.000000        0.00820141        0.00232709        0.00140541
     170         -1.076426        1.000000        0.00038825        0.00030716        0.00012733
     171         -1.076145        1.000000        0.00000547        0.00087932        0.00036529
     172         -1.074526        1.000000        0.00002731        0.00169753        0.00056976
     173         -1.074368        1.000000        0.00279884        0.00531565        0.00202826
     174         -1.073652        1.000000        0.00000276        0.00296029        0.00101366
     175         -1.072808        1.000000        0.00023526        0.00130223        0.00046534
     176         -1.072152        1.000000        0.00336904        0.00165770        0.00053847
     177         -1.071192        1.000000        0.00062212        0.00097891        0.00028300
     178         -1.070444        1.000000        0.00060279        0.00099178        0.00032662
     179         -1.070141        1.000000        0.00361522        0.00244822        0.00130570
     180         -1.069416        1.000000        0.00113832        0.00031246        0.00010698
     181         -1.069179        1.000000        0.00029194        0.00275743        0.00107833
     182         -1.067610        1.000000        0.00135476        0.00022419        0.00014129
     183         -1.066240        1.000000        0.00000668        0.00048010        0.00014781
     184         -1.065124        1.000000        0.00021890        0.00176614        0.00067687
     185         -1.064565        1.000000        0.00217257        0.00257761        0.00122755
     186         -1.063575        1.000000        0.00067546        0.00379480        0.00164329
     187         -1.062901        1.000000        0.00016067        0.00032022        0.00012815
     188         -1.062274        1.000000        0.00016732        0.00250520        0.00135385
     189         -1.061481        1.000000        0.00011606        0.00080706        0.00026304
     190         -1.061312        1.000000        0.00077558        0.00694039        0.00264640
     191         -1.060592        1.000000        0.00037237        0.00036072        0.00019065
     192         -1.059297        1.000000        0.00002528        0.00045272        0.00017595
     193         -1.058643        1.000000        0.00023637        0.00117237        0.00055268
     194         -1.058262        1.000000        0.00004623        0.00264099        0.00086494
     195         -1.057127        1.000000        0.00004376        0.00184795        0.00067283
     196         -1.056224        1.000000        0.00002728        0.00099279        0.00034528
     197         -1.056050        1.000000        0.00018766        0.00083892        0.00031679
     198         -1.054881        1.000000        0.00030184        0.00184729        0.00072553
     199         -1.054669        1.000000        0.00004966        0.01335831        0.00522038
     200         -1.053605        1.000000        0.00000125        0.00019456        0.00009393
     201         -1.053457        1.000000        0.00000950        0.00071884        0.00034187
     202         -1.052589        1.000000        0.00002202        0.00193829        0.00072871
     203         -1.052089        1.000000        0.00000178        0.00049265        0.00021922
     204         -1.051299        1.000000        0.00003177        0.00263249        0.00098119
     205         -1.050676        1.000000        0.00000003        0.00006245        0.00003940
     206         -1.050307        1.000000        0.00000308        0.00193296        0.00071984
     207         -1.049921        1.000000        0.00001356        0.00133167        0.00061921
     208         -1.049485        1.000000        0.00011838        0.00186690        0.00075720
     209         -1.049126        1.000000        0.00000178        0.00063860        0.00025396
     210         -1.048445        1.000000        0.00000315        0.00183507        0.00078561
     211         -1.048201        1.000000        0.00024391        0.00046121        0.00019912
     212         -1.047911        1.000000        0.00002586        0.00335156        0.00143672
     213         -1.047620        1.000000        0.00001509        0.00422052        0.00172115
     214         -1.046931        1.000000        0.00004194        0.00334999        0.00139360
     215         -1.046733        1.000000        0.00003178        0.00081944        0.00028683
     216         -1.046634        1.000000        0.00016437        0.00411257        0.00174820
     217         -1.045930        1.000000        0.00003263        0.00641369        0.00253443
     218         -1.045069        1.000000        0.00000256        0.00198632        0.00078289
     219         -1.044350        1.000000        0.00003322        0.04366179        0.01876966
     220         -1.043623        1.000000        0.00000186        0.00203191        0.00087440
     221         -1.043421        1.000000        0.00000361        0.00109310        0.00039576
     222         -1.042778        1.000000        0.00010205        0.00792788        0.00337037
     223         -1.042701        1.000000        0.00000877        0.00092266        0.00035764
     224         -1.042424        1.000000        0.00000220        0.00202567        0.00090767
     225         -1.041682        1.000000        0.00000545        0.00104361        0.00045344
     226         -1.041498        1.000000        0.00003792        0.00187794        0.00074890
     227         -1.040837        1.000000        0.00000223        0.00067737        0.00029018
     228         -1.040496        1.000000        0.00024495        0.00657364        0.00268835
     229         -1.040151        1.000000        0.00000985        0.00047877        0.00028844
     230         -1.039686        1.000000        0.00010675        0.00351629        0.00152575
     231         -1.038961        1.000000        0.00000326        0.00032666        0.00014621
     232         -1.038553        1.000000        0.00001474        0.00146910        0.00059243
     233         -1.038476        1.000000        0.00018065        0.00897310        0.00363733
     234         -1.038152        1.000000        0.00087677        0.03103148        0.01207049
     235         -1.038041        1.000000        0.00051446        0.01431940        0.00542060
     236         -1.036855        1.000000        0.00021241        0.00523433        0.00204340
     237         -1.036488        1.000000        0.00018865        0.00553574        0.00205497
     238         -1.036186        1.000000        0.00004803        0.00140522        0.00064195
     239         -1.036068        1.000000        0.00010330        0.00129900        0.00058456
     240         -1.035757        1.000000        0.00000116        0.00095704        0.00042598
     241         -1.035291        1.000000        0.00007693        0.00198478        0.00075820
     242         -1.035048        1.000000        0.00021821        0.00227322        0.00116780
     243         -1.035000        1.000000        0.00000519        0.00170479        0.00072389
     244         -1.034454        1.000000        0.00009599        0.01036911        0.00353943
     245         -1.034219        1.000000        0.00005620        0.00688987        0.00250338
     246         -1.033874        1.000000        0.00001809        0.00312622        0.00110867
     247         -1.033507        1.000000        0.00002299        0.00117811        0.00043472
     248         -1.033219        1.000000        0.00001090        0.00343732        0.00169838
     249         -1.033056        1.000000        0.00004771        0.00221190        0.00083173
     250         -1.032307        1.000000        0.00018164        0.00742716        0.00288260
     251         -1.031324        1.000000        0.00003614        0.00086258        0.00034239
     252         -1.031144        1.000000        0.00000019        0.00011576        0.00006021
     253         -1.030643        1.000000        0.00001948        0.00051804        0.00021066
     254         -1.030284        1.000000        0.00002672        0.00872775        0.00317258
     255         -1.030062        1.000000        0.00003920        0.01362782        0.00501813
     256         -1.029818        1.000000        0.00000377        0.00227583        0.00131007
     257         -1.028552        1.000000        0.00000130        0.00046392        0.00020337
     258         -1.027578        1.000000        0.00000032        0.00003260        0.00001702
     259         -1.027121        1.000000        0.00000760        0.07885873        0.04149700
     260         -1.026880        1.000000        0.00000042        0.00336072        0.00176035
     261         -1.026226        1.000000        0.00000007        0.00100459        0.00053348
     262         -1.025765        1.000000        0.00000018        0.00000826        0.00000677
     263         -1.025299        1.000000        0.00000475        0.00041788        0.00025982
     264         -1.025158        1.000000        0.00000272        0.00005669        0.00003062
     265         -1.025007        1.000000        0.00000923        0.00144812        0.00075529
     266         -1.024422        1.000000        0.00000386        0.00026509        0.00011577
     267         -1.023793        1.000000        0.00000168        0.00016251        0.00008058
     268         -1.023594        1.000000        0.00000104        0.00001755        0.00000897
     269         -1.023069        1.000000        0.00000472        0.00014000        0.00004370
     270         -1.022603        1.000000        0.00000135        0.00015288        0.00008208
     271         -1.022074        1.000000        0.00000230        0.00020315        0.00010148
     272         -1.021695        1.000000        0.00000579        0.00007286        0.00004252
     273         -1.021372        1.000000        0.00000028        0.00027608        0.00016826
     274         -1.021076        1.000000        0.00000045        0.00018878        0.00009614
     275         -1.019492        1.000000        0.00000004        0.00000142        0.00000057
     276         -1.018003        1.000000        0.00000017        0.00003857        0.00002115
     277         -1.016408        1.000000        0.00001065        0.00037303        0.00017025
     278         -1.016278        1.000000        0.00000102        0.00001749        0.00000867
     279         -1.015338        1.000000        0.00000005        0.00000213        0.00000095
     280         -1.013851        1.000000        0.00000102        0.00001915        0.00001362
     281         -1.010223        1.000000        0.00000045        0.00000889        0.00000399
     282         -1.009666        1.000000        0.00000009        0.00000146        0.00000109
     283         -1.007726        1.000000        0.00000067        0.00001689        0.00000760
     284         -1.007300        1.000000        0.00001371        0.00024058        0.00010413
     285         -1.006916        1.000000        0.00000003        0.00000067        0.00000034
     286         -0.889442        1.000000        0.00000000        0.00000001        0.00000000
     287         -0.869424        1.000000        0.00000000        0.00000000        0.00000000
     288         -0.867225        1.000000        0.00000000        0.00000000        0.00000000
     289         -0.864755        1.000000        0.00000000        0.00000000        0.00000000
     290         -0.860947        1.000000        0.00000000        0.00000000        0.00000000
     291         -0.846899        1.000000        0.00000000        0.00000000        0.00000000
     292         -0.844423        1.000000        0.00000000        0.00000000        0.00000000
     293         -0.843782        1.000000        0.00000000        0.00000000        0.00000000
     294         -0.840445        1.000000        0.00000000        0.00000000        0.00000000
     295         -0.821748        1.000000        0.00000000        0.00000000        0.00000000
     296         -0.818927        1.000000        0.00000000        0.00000000        0.00000000
     297         -0.814033        1.000000        0.00000000        0.00000001        0.00000000
     298         -0.808071        1.000000        0.00000000        0.00000000        0.00000000
     299         -0.807076        1.000000        0.00000000        0.00000000        0.00000000
     300         -0.806003        1.000000        0.00000000        0.00000000        0.00000000
     301         -0.805433        1.000000        0.00000000        0.00000000        0.00000000
     302         -0.803208        1.000000        0.00000000        0.00000000        0.00000000
     303         -0.802271        1.000000        0.00000000        0.00000000        0.00000000
     304         -0.801014        1.000000        0.00000000        0.00000000        0.00000000
     305         -0.800419        1.000000        0.00000000        0.00000000        0.00000000
     306         -0.800163        1.000000        0.00000000        0.00000000        0.00000000
     307         -0.798966        1.000000        0.00000000        0.00000000        0.00000000