# Projected DOS for list 131 of 1 atoms, at iteration step i = 0, E(Fermi) =    -0.245567 a.u.
#     MO Eigenvalue [a.u.]      Occupation                 s                 p                 d
       1         -3.122063        1.000000        0.00000000        0.00000000        0.00000000
       2         -3.121278        1.000000        0.00000000        0.00000000        0.00000000
       3         -3.121021        1.000000        0.00000000        0.00000000        0.00000000
       4         -3.120578        1.000000        0.00000000        0.00000000        0.00000000
       5         -3.120271        1.000000        0.00000000        0.00000000        0.00000000
       6         -3.119857        1.000000        0.00000000        0.00000000        0.00000000
       7         -3.119652        1.000000        0.00000000        0.00000000        0.00000000
       8         -3.119624        1.000000        0.00000000        0.00000000        0.00000000
       9         -3.119219        1.000000        0.00000000        0.00000000        0.00000000
      10         -3.119023        1.000000        0.00000000        0.00000000        0.00000000
      11         -3.118913        1.000000        0.00000000        0.00000000        0.00000000
      12         -3.118874        1.000000        0.00000000        0.00000000        0.00000000
      13         -3.118317        1.000000        0.00000000        0.00000000        0.00000000
      14         -3.118249        1.000000        0.00000000        0.00000000        0.00000000
      15         -3.117895        1.000000        0.00000000        0.00000000        0.00000000
      16         -3.117383        1.000000        0.00000000        0.00000000        0.00000000
      17         -3.117165        1.000000        0.00000000        0.00000000        0.00000000
      18         -3.116815        1.000000        0.00000000        0.00000000        0.00000000
      19         -3.116436        1.000000        0.00000000        0.00000000        0.00000000
      20         -3.116021        1.000000        0.00000000        0.00000000        0.00000000
      21         -3.115852        1.000000        0.00000000        0.00000000        0.00000000
      22         -3.115668        1.000000        0.00000000        0.00000000        0.00000000
      23         -3.115368        1.000000        0.00000000        0.00000000        0.00000000
      24         -3.115339        1.000000        0.00000000        0.00000000        0.00000000
      25         -3.115041        1.000000        0.00000000        0.00000000        0.00000000
      26         -3.114366        1.000000        0.00000000        0.00000000        0.00000000
      27         -3.113951        1.000000        0.00000000        0.00000000        0.00000000
      28         -3.113764        1.000000        0.00000000        0.00000000        0.00000000
      29         -3.112534        1.000000        0.00000000        0.00000000        0.00000000
      30         -3.111679        1.000000        0.00000000        0.00000000        0.00000000
      31         -1.784233        1.000000        0.00000000        0.00000000        0.00000000
      32         -1.782870        1.000000        0.00000000        0.00000000        0.00000000
      33         -1.782324        1.000000        0.00000000        0.00000000        0.00000000
      34         -1.782130        1.000000        0.00000000        0.00000000        0.00000000
      35         -1.781736        1.000000        0.00000000        0.00000000        0.00000000
      36         -1.781230        1.000000        0.00000000        0.00000000        0.00000000
      37         -1.780847        1.000000        0.00000000        0.00000000        0.00000000
      38         -1.780487        1.000000        0.00000000        0.00000000        0.00000000
      39         -1.780184        1.000000        0.00000000        0.00000000        0.00000000
      40         -1.779550        1.000000        0.00000000        0.00000000        0.00000000
      41         -1.779259        1.000000        0.00000000        0.00000000        0.00000000
      42         -1.778921        1.000000        0.00000000        0.00000000        0.00000000
      43         -1.778390        1.000000        0.00000000        0.00000000        0.00000000
      44         -1.778140        1.000000        0.00000000        0.00000000        0.00000000
      45         -1.777912        1.000000        0.00000000        0.00000000        0.00000000
      46         -1.777514        1.000000        0.00000000        0.00000000        0.00000000
      47         -1.777362        1.000000        0.00000000        0.00000000        0.00000000
      48         -1.776787        1.000000        0.00000000        0.00000000        0.00000000
      49         -1.776537        1.000000        0.00000000        0.00000000        0.00000000
      50         -1.776457        1.000000        0.00000000        0.00000000        0.00000000
      51         -1.776029        1.000000        0.00000000        0.00000000        0.00000000
      52         -1.774038        1.000000        0.00000000        0.00000000        0.00000000
      53         -1.773797        1.000000        0.00000000        0.00000000        0.00000000
      54         -1.773665        1.000000        0.00000000        0.00000000        0.00000000
      55         -1.772725        1.000000        0.00000000        0.00000000        0.00000000
      56         -1.772546        1.000000        0.00000000        0.00000000        0.00000000
      57         -1.772041        1.000000        0.00000000        0.00000000        0.00000000
      58         -1.771662        1.000000        0.00000000        0.00000000        0.00000000
      59         -1.771364        1.000000        0.00000000        0.00000000        0.00000000
      60         -1.770813        1.000000        0.00000000        0.00000000        0.00000000
      61         -1.770640        1.000000        0.00000000        0.00000000        0.00000000
      62         -1.770449        1.000000        0.00000000        0.00000000        0.00000000
      63         -1.770188        1.000000        0.00000000        0.00000000        0.00000000
      64         -1.770126        1.000000        0.00000000        0.00000000        0.00000000
      65         -1.769991        1.000000        0.00000000        0.00000000        0.00000000
      66         -1.769845        1.000000        0.00000000        0.00000000        0.00000000
      67         -1.769763        1.000000        0.00000000        0.00000000        0.00000000
      68         -1.769661        1.000000        0.00000000        0.00000000        0.00000000
      69         -1.769465        1.000000        0.00000000        0.00000000        0.00000000
      70         -1.769351        1.000000        0.00000000        0.00000000        0.00000000
      71         -1.769328        1.000000        0.00000000        0.00000000        0.00000000
      72         -1.769216        1.000000        0.00000000        0.00000000        0.00000000
      73         -1.769129        1.000000        0.00000000        0.00000000        0.00000000
      74         -1.769070        1.000000        0.00000000        0.00000000        0.00000000
      75         -1.768941        1.000000        0.00000000        0.00000000        0.00000000
      76         -1.768822        1.000000        0.00000000        0.00000000        0.00000000
      77         -1.768707        1.000000        0.00000000        0.00000000        0.00000000
      78         -1.768585        1.000000        0.00000000        0.00000000        0.00000000
      79         -1.768439        1.000000        0.00000000        0.00000000        0.00000000
      80         -1.768329        1.000000        0.00000000        0.00000000        0.00000000
      81         -1.768089        1.000000        0.00000000        0.00000000        0.00000000
      82         -1.767883        1.000000        0.00000000        0.00000000        0.00000000
      83         -1.767662        1.000000        0.00000000        0.00000000        0.00000000
      84         -1.767495        1.000000        0.00000000        0.00000000        0.00000000
      85         -1.767311        1.000000        0.00000000        0.00000000        0.00000000
      86         -1.767266        1.000000        0.00000000        0.00000000        0.00000000
      87         -1.767060        1.000000        0.00000000        0.00000000        0.00000000
      88         -1.767025        1.000000        0.00000000        0.00000000        0.00000000
      89         -1.766872        1.000000        0.00000000        0.00000000        0.00000000
      90         -1.766524        1.000000        0.00000000        0.00000000        0.00000000
      91         -1.766405        1.000000        0.00000000        0.00000000        0.00000000
      92         -1.766254        1.000000        0.00000000        0.00000000        0.00000000
      93         -1.766123        1.000000        0.00000000        0.00000000        0.00000000
      94         -1.765857        1.000000        0.00000000        0.00000000        0.00000000
      95         -1.765515        1.000000        0.00000000        0.00000000        0.00000000
      96         -1.765181        1.000000        0.00000000        0.00000000        0.00000000
      97         -1.765105        1.000000        0.00000000        0.00000000        0.00000000
      98         -1.764967        1.000000        0.00000000        0.00000000        0.00000000
      99         -1.764710        1.000000        0.00000000        0.00000000        0.00000000
     100         -1.764440        1.000000        0.00000000        0.00000000        0.00000000
     101         -1.764248        1.000000        0.00000000        0.00000000        0.00000000
     102         -1.763945        1.000000        0.00000000        0.00000000        0.00000000
     103         -1.763804        1.000000        0.00000000        0.00000000        0.00000000
     104         -1.763351        1.000000        0.00000000        0.00000000        0.00000000
     105         -1.763205        1.000000        0.00000000        0.00000000        0.00000000
     106         -1.763107        1.000000        0.00000000        0.00000000        0.00000000
     107         -1.762531        1.000000        0.00000000        0.00000000        0.00000000
     108         -1.762343        1.000000        0.00000000        0.00000000        0.00000000
     109         -1.761453        1.000000        0.00000000        0.00000000        0.00000000
     110         -1.760969        1.000000        0.00000000        0.00000000        0.00000000
     111         -1.760481        1.000000        0.00000000        0.00000000        0.00000000
     112         -1.760009        1.000000        0.00000000        0.00000000        0.00000000
     113         -1.759531        1.000000        0.00000000        0.00000000        0.00000000
     114         -1.759105        1.000000        0.00000000        0.00000000        0.00000000
     115         -1.758777        1.000000        0.00000000        0.00000000        0.00000000
     116         -1.757462        1.000000        0.00000000        0.00000000        0.00000000
     117         -1.756221        1.000000        0.00000000        0.00000000        0.00000000
     118         -1.755333        1.000000        0.00000000        0.00000000        0.00000000
     119         -1.754385        1.000000        0.00000000        0.00000000        0.00000000
     120         -1.752742        1.000000        0.00000000        0.00000000        0.00000000
     121         -1.131181        1.000000        0.00038767        0.00005776        0.00002282
     122         -1.128658        1.000000        0.00034944        0.00013163        0.00002719
     123         -1.128000        1.000000        0.00158997        0.00022253        0.00010142
     124         -1.126427        1.000000        0.00026185        0.00045537        0.00001457
     125         -1.120469        1.000000        0.00201635        0.00034439        0.00013730
     126         -1.119202        1.000000        0.00009527        0.00052893        0.00001098
     127         -1.117081        1.000000        0.00041176        0.00006502        0.00003760
     128         -1.116156        1.000000        0.00000677        0.00000248        0.00000068
     129         -1.115054        1.000000        0.00019906        0.00001119        0.00001117
     130         -1.111818        1.000000        0.00006122        0.00001413        0.00000798
     131         -1.111610        1.000000        0.00002014        0.00032018        0.00001207
     132         -1.110976        1.000000        0.00235260        0.00037981        0.00008412
     133         -1.109888        1.000000        0.00195937        0.00080751        0.00005990
     134         -1.108601        1.000000        0.00002905        0.00019966        0.00002326
     135         -1.108036        1.000000        0.00008121        0.00007548        0.00001290
     136         -1.107349        1.000000        0.00111744        0.00024286        0.00005056
     137         -1.106797        1.000000        0.00093971        0.00003698        0.00005317
     138         -1.106077        1.000000        0.00000402        0.00005535        0.00000335
     139         -1.104162        1.000000        0.00038119        0.00005523        0.00001768
     140         -1.102892        1.000000        0.00001275        0.00002497        0.00000561
     141         -1.102196        1.000000        0.00184633        0.00099300        0.00007704
     142         -1.101581        1.000000        0.00355537        0.00016227        0.00008929
     143         -1.101215        1.000000        0.00004301        0.00022697        0.00001158
     144         -1.099602        1.000000        0.00032278        0.00048094        0.00002239
     145         -1.098107        1.000000        0.00659400        0.00029136        0.00016360
     146         -1.097450        1.000000        0.00645992        0.00031113        0.00018026
     147         -1.097046        1.000000        0.00218607        0.00046766        0.00007212
     148         -1.095795        1.000000        0.00005213        0.00001752        0.00000667
     149         -1.095192        1.000000        0.00259999        0.00007330        0.00008461
     150         -1.093515        1.000000        0.00749125        0.00038222        0.00012945
     151         -1.093123        1.000000        0.00687491        0.00040483        0.00013421
     152         -1.092614        1.000000        0.00045930        0.00007976        0.00002036
     153         -1.091821        1.000000        0.00002994        0.00005301        0.00000792
     154         -1.090761        1.000000        0.00113440        0.00003434        0.00003784
     155         -1.090597        1.000000        0.00073150        0.00026934        0.00000973
     156         -1.089544        1.000000        0.00315440        0.00033310        0.00011245
     157         -1.088154        1.000000        0.00160552        0.00007151        0.00002977
     158         -1.086960        1.000000        0.00003379        0.00002481        0.00000571
     159         -1.086718        1.000000        0.00263508        0.00099453        0.00009552
     160         -1.085525        1.000000        0.00075402        0.00047083        0.00003127
     161         -1.084219        1.000000        0.00000109        0.00201546        0.00006916
     162         -1.082734        1.000000        0.00335853        0.00024265        0.00007196
     163         -1.082381        1.000000        0.00000945        0.00014399        0.00000473
     164         -1.080807        1.000000        0.00003282        0.00019840        0.00001376
     165         -1.080293        1.000000        0.00000124        0.00003051        0.00000087
     166         -1.079453        1.000000        0.00645891        0.00011893        0.00017451
     167         -1.078246        1.000000        0.00083792        0.00002321        0.00004236
     168         -1.077774        1.000000        0.00043411        0.00043409        0.00001942
     169         -1.077143        1.000000        0.00193488        0.00266105        0.00004008
     170         -1.076426        1.000000        0.00120117        0.00008189        0.00001691
     171         -1.076145        1.000000        0.00026087        0.00046868        0.00002082
     172         -1.074526        1.000000        0.00073130        0.00055859        0.00002620
     173         -1.074368        1.000000        0.00004549        0.00038704        0.00000866
     174         -1.073652        1.000000        0.00465800        0.00009584        0.00010086
     175         -1.072808        1.000000        0.00056823        0.00053720        0.00002514
     176         -1.072152        1.000000        0.00068018        0.00005173        0.00001817
     177         -1.071192        1.000000        0.00062180        0.00001447        0.00001641
     178         -1.070444        1.000000        0.00082350        0.00013140        0.00001832
     179         -1.070141        1.000000        0.00085941        0.00008450        0.00001217
     180         -1.069416        1.000000        0.00001519        0.00032206        0.00001728
     181         -1.069179        1.000000        0.00003991        0.00008527        0.00000594
     182         -1.067610        1.000000        0.00016810        0.00006707        0.00000569
     183         -1.066240        1.000000        0.00104738        0.00017183        0.00002111
     184         -1.065124        1.000000        0.00005980        0.00007982        0.00000904
     185         -1.064565        1.000000        0.00045096        0.00002335        0.00000499
     186         -1.063575        1.000000        0.00250198        0.00007297        0.00001909
     187         -1.062901        1.000000        0.00051564        0.00002094        0.00000471
     188         -1.062274        1.000000        0.00030012        0.00006817        0.00001566
     189         -1.061481        1.000000        0.00012762        0.00009705        0.00002888
     190         -1.061312        1.000000        0.00098378        0.00014383        0.00006774
     191         -1.060592        1.000000        0.00182824        0.00011591        0.00000599
     192         -1.059297        1.000000        0.00013551        0.00001807        0.00001394
     193         -1.058643        1.000000        0.00005259        0.00007718        0.00007566
     194         -1.058262        1.000000        0.00020422        0.00001056        0.00000171
     195         -1.057127        1.000000        0.00001157        0.00001438        0.00000892
     196         -1.056224        1.000000        0.00018060        0.00000736        0.00000275
     197         -1.056050        1.000000        0.00033369        0.00001120        0.00000143
     198         -1.054881        1.000000        0.00028379        0.00001691        0.00000185
     199         -1.054669        1.000000        0.00001119        0.00001951        0.00000905
     200         -1.053605        1.000000        0.00012492        0.00001350        0.00000414
     201         -1.053457        1.000000        0.00025544        0.00001295        0.00001216
     202         -1.052589        1.000000        0.00284148        0.00018677        0.00006198
     203         -1.052089        1.000000        0.00029787        0.00001511        0.00001085
     204         -1.051299        1.000000        0.00000093        0.00002835        0.00001965
     205         -1.050676        1.000000        0.00043967        0.00002212        0.00003570
     206         -1.050307        1.000000        0.00114090        0.00003684        0.00007416
     207         -1.049921        1.000000        0.00007480        0.00005258        0.00003756
     208         -1.049485        1.000000        0.00003797        0.00007285        0.00003046
     209         -1.049126        1.000000        0.00009513        0.00032485        0.00011607
     210         -1.048445        1.000000        0.00020984        0.00002289        0.00005548
     211         -1.048201        1.000000        0.00008306        0.00001566        0.00001652
     212         -1.047911        1.000000        0.00000285        0.00000094        0.00000663
     213         -1.047620        1.000000        0.00000019        0.00001716        0.00004408
     214         -1.046931        1.000000        0.00021769        0.00002791        0.00004874
     215         -1.046733        1.000000        0.00001774        0.00018805        0.00005855
     216         -1.046634        1.000000        0.00007810        0.00001306        0.00001988
     217         -1.045930        1.000000        0.00094455        0.00005857        0.00005650
     218         -1.045069        1.000000        0.00001242        0.00007389        0.00007401
     219         -1.044350        1.000000        0.00005637        0.00000418        0.00003038
     220         -1.043623        1.000000        0.00034928        0.00000742        0.00000940
     221         -1.043421        1.000000        0.00000094        0.00000133        0.00000019
     222         -1.042778        1.000000        0.00009004        0.00000765        0.00000323
     223         -1.042701        1.000000        0.00083017        0.00006098        0.00008649
     224         -1.042424        1.000000        0.00013522        0.00000560        0.00002600
     225         -1.041682        1.000000        0.00130635        0.00002939        0.00005134
     226         -1.041498        1.000000        0.00017446        0.00012885        0.00007433
     227         -1.040837        1.000000        0.00015859        0.00002153        0.00000547
     228         -1.040496        1.000000        0.00308266        0.00009230        0.00008554
     229         -1.040151        1.000000        0.00024094        0.00004682        0.00001322
     230         -1.039686        1.000000        0.00021183        0.00004480        0.00004451
     231         -1.038961        1.000000        0.00003453        0.00004040        0.00015456
     232         -1.038553        1.000000        0.00029589        0.00011758        0.00002250
     233         -1.038476        1.000000        0.00002919        0.00022360        0.00012648
     234         -1.038152        1.000000        0.00012635        0.00000599        0.00002067
     235         -1.038041        1.000000        0.00009006        0.00000697        0.00006234
     236         -1.036855        1.000000        0.00012341        0.00000895        0.00001105
     237         -1.036488        1.000000        0.00000279        0.00001337        0.00002226
     238         -1.036186        1.000000        0.00032676        0.00002391        0.00003488
     239         -1.036068        1.000000        0.00064871        0.00004113        0.00003461
     240         -1.035757        1.000000        0.00002422        0.00003207        0.00001814
     241         -1.035291        1.000000        0.00003917        0.00001515        0.00000593
     242         -1.035048        1.000000        0.00018932        0.00003790        0.00002637
     243         -1.035000        1.000000        0.00061061        0.00000829        0.00000349
     244         -1.034454        1.000000        0.00130364        0.00005513        0.00003249
     245         -1.034219        1.000000        0.00053367        0.00004321        0.00003496
     246         -1.033874        1.000000        0.00002564        0.00000457        0.00001433
     247         -1.033507        1.000000        0.00000961        0.00000868        0.00000395
     248         -1.033219        1.000000        0.00008230        0.00001175        0.00000834
     249         -1.033056        1.000000        0.00006535        0.00000959        0.00000314
     250         -1.032307        1.000000        0.00019446        0.00003143        0.00003557
     251         -1.031324        1.000000        0.00006350        0.00000224        0.00000289
     252         -1.031144        1.000000        0.00007244        0.00000117        0.00000240
     253         -1.030643        1.000000        0.00000107        0.00001293        0.00001515
     254         -1.030284        1.000000        0.00135896        0.00002661        0.00000508
     255         -1.030062        1.000000        0.00185697        0.00003654        0.00001129
     256         -1.029818        1.000000        0.00002021        0.00000219        0.00000225
     257         -1.028552        1.000000        0.00000264        0.00000230        0.00000032
     258         -1.027578        1.000000        0.00000011        0.00000045        0.00000025
     259         -1.027121        1.000000        0.00143088        0.00001888        0.00000956
     260         -1.026880        1.000000        0.00042134        0.00000352        0.00000154
     261         -1.026226        1.000000        0.00004997        0.00000053        0.00000053
     262         -1.025765        1.000000        0.00082095        0.00000937        0.00000116
     263         -1.025299        1.000000        0.00006603        0.00000112        0.00000043
     264         -1.025158        1.000000        0.00855569        0.00007948        0.00001792
     265         -1.025007        1.000000        0.00583078        0.00005170        0.00001004
     266         -1.024422        1.000000        0.00024914        0.00000216        0.00000065
     267         -1.023793        1.000000        0.00391955        0.00003347        0.00000548
     268         -1.023594        1.000000        0.01676479        0.00014488        0.00001677
     269         -1.023069        1.000000        0.01303495        0.00011462        0.00001100
     270         -1.022603        1.000000        0.01557367        0.00013233        0.00001257
     271         -1.022074        1.000000        0.07635009        0.00065898        0.00005345
     272         -1.021695        1.000000        0.30826844        0.00267959        0.00021316
     273         -1.021372        1.000000        0.01024633        0.00008728        0.00000777
     274         -1.021076        1.000000        0.00374697        0.00003315        0.00000270
     275         -1.019492        1.000000        0.00022825        0.00000196        0.00000014
     276         -1.018003        1.000000        0.00008934        0.00000091        0.00000009
     277         -1.016408        1.000000        0.00002193        0.00000021        0.00000001
     278         -1.016278        1.000000        0.00005239        0.00000067        0.00000006
     279         -1.015338        1.000000        0.00000084        0.00000003        0.00000000
     280         -1.013851        1.000000        0.00000047        0.00000003        0.00000001
     281         -1.010223        1.000000        0.00000179        0.00000002        0.00000001
     282         -1.009666        1.000000        0.00000183        0.00000092        0.00000016
     283         -1.007726        1.000000        0.00000256        0.00000002        0.00000002
     284         -1.007300        1.000000        0.00002141        0.00000021        0.00000019
     285         -1.006916        1.000000        0.00024805        0.00000441        0.00000100
     286         -0.889442        1.000000        0.00000000        0.00000000        0.00000000
     287         -0.869424        1.000000        0.00000000        0.00000000        0.00000000
     288         -0.867225        1.000000        0.00000000        0.00000000        0.00000000
     289         -0.864755        1.000000        0.00000000        0.00000000        0.00000000
     290         -0.860947        1.000000        0.00000000        0.00000000        0.00000000
     291         -0.846899        1.000000        0.00000000        0.00000000        0.00000000
     292         -0.844423        1.000000        0.00000000        0.00000000        0.00000000
     293         -0.843782        1.000000        0.00000000        0.00000000        0.00000000
     294         -0.840445        1.000000        0.00000000        0.00000000        0.00000000
     295         -0.821748        1.000000        0.00000000        0.00000000        0.00000000
     296         -0.818927        1.000000        0.00000000        0.00000000        0.00000000
     297         -0.814033        1.000000        0.00000000        0.00000000        0.00000000
     298         -0.808071        1.000000        0.00000000        0.00000000        0.00000000
     299         -0.807076        1.000000        0.00000000        0.00000000        0.00000000
     300         -0.806003        1.000000        0.00000000        0.00000000        0.00000000
     301         -0.805433        1.000000        0.00000000        0.00000000        0.00000000
     302         -0.803208        1.000000        0.00000000        0.00000000        0.00000000
     303         -0.802271        1.000000        0.00000000        0.00000000        0.00000000
     304         -0.801014        1.000000        0.00000000        0.00000000        0.00000000
     305         -0.800419        1.000000        0.00000000        0.00000000        0.00000000
     306         -0.800163        1.000000        0.00000000        0.00000000        0.00000000
     307         -0.798966        1.000000        0.00000000        0.00000000        0.00000000