# Projected DOS for list 27 of 1 atoms, at iteration step i = 0, E(Fermi) =    -0.245567 a.u.
#     MO Eigenvalue [a.u.]      Occupation                 s                 p                 d
       1         -3.122063        1.000000        0.00000000        0.00000000        0.00000000
       2         -3.121278        1.000000        0.00000000        0.00000000        0.00000000
       3         -3.121021        1.000000        0.00000000        0.00000000        0.00000000
       4         -3.120578        1.000000        0.00000000        0.00000000        0.00000000
       5         -3.120271        1.000000        0.00000000        0.00000000        0.00000000
       6         -3.119857        1.000000        0.00000000        0.00000000        0.00000000
       7         -3.119652        1.000000        0.00000000        0.00000000        0.00000000
       8         -3.119624        1.000000        0.00000000        0.00000000        0.00000000
       9         -3.119219        1.000000        0.00000000        0.00000000        0.00000000
      10         -3.119023        1.000000        0.00000000        0.00000000        0.00000000
      11         -3.118913        1.000000        0.00000000        0.00000000        0.00000000
      12         -3.118874        1.000000        0.00000000        0.00000000        0.00000000
      13         -3.118317        1.000000        0.00000000        0.00000000        0.00000000
      14         -3.118249        1.000000        0.00000000        0.00000000        0.00000000
      15         -3.117895        1.000000        0.00000000        0.00000000        0.00000000
      16         -3.117383        1.000000        0.00000000        0.00000000        0.00000000
      17         -3.117165        1.000000        0.00000000        0.00000000        0.00000000
      18         -3.116815        1.000000        0.00000000        0.00000000        0.00000000
      19         -3.116436        1.000000        0.00000000        0.00000000        0.00000000
      20         -3.116021        1.000000        0.00000000        0.00000000        0.00000000
      21         -3.115852        1.000000        0.00000000        0.00000000        0.00000000
      22         -3.115668        1.000000        0.00000000        0.00000000        0.00000000
      23         -3.115368        1.000000        0.00000000        0.00000000        0.00000000
      24         -3.115339        1.000000        0.00000000        0.00000000        0.00000000
      25         -3.115041        1.000000        0.00000000        0.00000000        0.00000000
      26         -3.114366        1.000000        0.00000000        0.00000000        0.00000000
      27         -3.113951        1.000000        0.00000000        0.00000000        0.00000000
      28         -3.113764        1.000000        0.00000000        0.00000000        0.00000000
      29         -3.112534        1.000000        0.00000000        0.00000000        0.00000000
      30         -3.111679        1.000000        0.00000000        0.00000000        0.00000000
      31         -1.784233        1.000000        0.00000000        0.00000000        0.00000000
      32         -1.782870        1.000000        0.00000000        0.00000000        0.00000000
      33         -1.782324        1.000000        0.00000000        0.00000000        0.00000000
      34         -1.782130        1.000000        0.00000000        0.00000000        0.00000000
      35         -1.781736        1.000000        0.00000000        0.00000000        0.00000000
      36         -1.781230        1.000000        0.00000000        0.00000000        0.00000000
      37         -1.780847        1.000000        0.00000000        0.00000000        0.00000000
      38         -1.780487        1.000000        0.00000000        0.00000000        0.00000000
      39         -1.780184        1.000000        0.00000000        0.00000000        0.00000000
      40         -1.779550        1.000000        0.00000000        0.00000000        0.00000000
      41         -1.779259        1.000000        0.00000000        0.00000000        0.00000000
      42         -1.778921        1.000000        0.00000000        0.00000000        0.00000000
      43         -1.778390        1.000000        0.00000000        0.00000000        0.00000000
      44         -1.778140        1.000000        0.00000000        0.00000000        0.00000000
      45         -1.777912        1.000000        0.00000000        0.00000000        0.00000000
      46         -1.777514        1.000000        0.00000000        0.00000000        0.00000000
      47         -1.777362        1.000000        0.00000000        0.00000000        0.00000000
      48         -1.776787        1.000000        0.00000000        0.00000000        0.00000000
      49         -1.776537        1.000000        0.00000000        0.00000000        0.00000000
      50         -1.776457        1.000000        0.00000000        0.00000000        0.00000000
      51         -1.776029        1.000000        0.00000000        0.00000000        0.00000000
      52         -1.774038        1.000000        0.00000000        0.00000000        0.00000000
      53         -1.773797        1.000000        0.00000000        0.00000000        0.00000000
      54         -1.773665        1.000000        0.00000000        0.00000000        0.00000000
      55         -1.772725        1.000000        0.00000000        0.00000000        0.00000000
      56         -1.772546        1.000000        0.00000000        0.00000000        0.00000000
      57         -1.772041        1.000000        0.00000000        0.00000000        0.00000000
      58         -1.771662        1.000000        0.00000000        0.00000000        0.00000000
      59         -1.771364        1.000000        0.00000000        0.00000000        0.00000000
      60         -1.770813        1.000000        0.00000000        0.00000000        0.00000000
      61         -1.770640        1.000000        0.00000000        0.00000000        0.00000000
      62         -1.770449        1.000000        0.00000000        0.00000000        0.00000000
      63         -1.770188        1.000000        0.00000000        0.00000000        0.00000000
      64         -1.770126        1.000000        0.00000000        0.00000000        0.00000000
      65         -1.769991        1.000000        0.00000000        0.00000000        0.00000000
      66         -1.769845        1.000000        0.00000000        0.00000000        0.00000000
      67         -1.769763        1.000000        0.00000000        0.00000000        0.00000000
      68         -1.769661        1.000000        0.00000000        0.00000000        0.00000000
      69         -1.769465        1.000000        0.00000000        0.00000000        0.00000000
      70         -1.769351        1.000000        0.00000000        0.00000000        0.00000000
      71         -1.769328        1.000000        0.00000000        0.00000000        0.00000000
      72         -1.769216        1.000000        0.00000000        0.00000000        0.00000000
      73         -1.769129        1.000000        0.00000000        0.00000000        0.00000000
      74         -1.769070        1.000000        0.00000000        0.00000000        0.00000000
      75         -1.768941        1.000000        0.00000000        0.00000000        0.00000000
      76         -1.768822        1.000000        0.00000000        0.00000000        0.00000000
      77         -1.768707        1.000000        0.00000000        0.00000000        0.00000000
      78         -1.768585        1.000000        0.00000000        0.00000000        0.00000000
      79         -1.768439        1.000000        0.00000000        0.00000000        0.00000000
      80         -1.768329        1.000000        0.00000000        0.00000000        0.00000000
      81         -1.768089        1.000000        0.00000000        0.00000000        0.00000000
      82         -1.767883        1.000000        0.00000000        0.00000000        0.00000000
      83         -1.767662        1.000000        0.00000000        0.00000000        0.00000000
      84         -1.767495        1.000000        0.00000000        0.00000000        0.00000000
      85         -1.767311        1.000000        0.00000000        0.00000000        0.00000000
      86         -1.767266        1.000000        0.00000000        0.00000000        0.00000000
      87         -1.767060        1.000000        0.00000000        0.00000000        0.00000000
      88         -1.767025        1.000000        0.00000000        0.00000000        0.00000000
      89         -1.766872        1.000000        0.00000000        0.00000000        0.00000000
      90         -1.766524        1.000000        0.00000000        0.00000000        0.00000000
      91         -1.766405        1.000000        0.00000000        0.00000000        0.00000000
      92         -1.766254        1.000000        0.00000000        0.00000000        0.00000000
      93         -1.766123        1.000000        0.00000000        0.00000000        0.00000000
      94         -1.765857        1.000000        0.00000000        0.00000000        0.00000000
      95         -1.765515        1.000000        0.00000000        0.00000000        0.00000000
      96         -1.765181        1.000000        0.00000000        0.00000000        0.00000000
      97         -1.765105        1.000000        0.00000000        0.00000000        0.00000000
      98         -1.764967        1.000000        0.00000000        0.00000000        0.00000000
      99         -1.764710        1.000000        0.00000000        0.00000000        0.00000000
     100         -1.764440        1.000000        0.00000000        0.00000000        0.00000000
     101         -1.764248        1.000000        0.00000000        0.00000000        0.00000000
     102         -1.763945        1.000000        0.00000000        0.00000000        0.00000000
     103         -1.763804        1.000000        0.00000000        0.00000000        0.00000000
     104         -1.763351        1.000000        0.00000000        0.00000000        0.00000000
     105         -1.763205        1.000000        0.00000000        0.00000000        0.00000000
     106         -1.763107        1.000000        0.00000000        0.00000000        0.00000000
     107         -1.762531        1.000000        0.00000000        0.00000000        0.00000000
     108         -1.762343        1.000000        0.00000000        0.00000000        0.00000000
     109         -1.761453        1.000000        0.00000000        0.00000000        0.00000000
     110         -1.760969        1.000000        0.00000000        0.00000000        0.00000000
     111         -1.760481        1.000000        0.00000000        0.00000000        0.00000000
     112         -1.760009        1.000000        0.00000000        0.00000000        0.00000000
     113         -1.759531        1.000000        0.00000000        0.00000000        0.00000000
     114         -1.759105        1.000000        0.00000000        0.00000000        0.00000000
     115         -1.758777        1.000000        0.00000000        0.00000000        0.00000000
     116         -1.757462        1.000000        0.00000000        0.00000000        0.00000000
     117         -1.756221        1.000000        0.00000000        0.00000000        0.00000000
     118         -1.755333        1.000000        0.00000000        0.00000000        0.00000000
     119         -1.754385        1.000000        0.00000000        0.00000000        0.00000000
     120         -1.752742        1.000000        0.00000000        0.00000000        0.00000000
     121         -1.131181        1.000000        0.00097515        0.00033709        0.00007177
     122         -1.128658        1.000000        0.00021797        0.00038899        0.00007197
     123         -1.128000        1.000000        0.00238988        0.00068097        0.00019138
     124         -1.126427        1.000000        0.00033979        0.00163994        0.00035280
     125         -1.120469        1.000000        0.00021512        0.00078491        0.00013129
     126         -1.119202        1.000000        0.00004723        0.00004329        0.00001200
     127         -1.117081        1.000000        0.00069921        0.00047345        0.00011235
     128         -1.116156        1.000000        0.00046151        0.00015015        0.00003543
     129         -1.115054        1.000000        0.00005995        0.00009655        0.00001842
     130         -1.111818        1.000000        0.00270075        0.00075525        0.00022328
     131         -1.111610        1.000000        0.00000567        0.00000296        0.00000313
     132         -1.110976        1.000000        0.00123902        0.00207270        0.00053839
     133         -1.109888        1.000000        0.00640345        0.00335240        0.00092427
     134         -1.108601        1.000000        0.02023592        0.00201904        0.00086070
     135         -1.108036        1.000000        0.00496977        0.00579808        0.00150924
     136         -1.107349        1.000000        0.00123983        0.00132026        0.00032839
     137         -1.106797        1.000000        0.00461288        0.00079664        0.00012127
     138         -1.106077        1.000000        0.00116950        0.00104115        0.00024962
     139         -1.104162        1.000000        0.00037983        0.00019120        0.00007632
     140         -1.102892        1.000000        0.00111231        0.00008209        0.00004481
     141         -1.102196        1.000000        0.00789680        0.00055198        0.00015631
     142         -1.101581        1.000000        0.00010804        0.00041557        0.00011710
     143         -1.101215        1.000000        0.00052422        0.00034592        0.00012474
     144         -1.099602        1.000000        0.00728569        0.00094937        0.00035411
     145         -1.098107        1.000000        0.00552375        0.00094869        0.00024473
     146         -1.097450        1.000000        0.00226798        0.00018698        0.00011752
     147         -1.097046        1.000000        0.00007334        0.00394005        0.00096559
     148         -1.095795        1.000000        0.00073714        0.00047710        0.00011691
     149         -1.095192        1.000000        0.00407699        0.00557252        0.00144546
     150         -1.093515        1.000000        0.00422899        0.00131181        0.00027505
     151         -1.093123        1.000000        0.00118220        0.00039518        0.00008356
     152         -1.092614        1.000000        0.00968086        0.00430021        0.00095796
     153         -1.091821        1.000000        0.00026923        0.00049630        0.00014124
     154         -1.090761        1.000000        0.00007790        0.00376505        0.00108521
     155         -1.090597        1.000000        0.00008859        0.00080253        0.00019682
     156         -1.089544        1.000000        0.00007110        0.00072284        0.00023074
     157         -1.088154        1.000000        0.00018668        0.00687270        0.00214567
     158         -1.086960        1.000000        0.00000806        0.00372034        0.00132816
     159         -1.086718        1.000000        0.00020209        0.00246957        0.00081264
     160         -1.085525        1.000000        0.00024795        0.00067134        0.00015777
     161         -1.084219        1.000000        0.00041808        0.00065594        0.00012015
     162         -1.082734        1.000000        0.00037262        0.00316724        0.00101907
     163         -1.082381        1.000000        0.00134279        0.00021118        0.00008570
     164         -1.080807        1.000000        0.00123834        0.00076926        0.00025288
     165         -1.080293        1.000000        0.00847188        0.00095804        0.00018822
     166         -1.079453        1.000000        0.00011701        0.00122878        0.00040955
     167         -1.078246        1.000000        0.00324214        0.00154871        0.00037254
     168         -1.077774        1.000000        0.00000073        0.00002148        0.00000453
     169         -1.077143        1.000000        0.00015800        0.00193745        0.00060509
     170         -1.076426        1.000000        0.00005727        0.00234436        0.00088424
     171         -1.076145        1.000000        0.00169954        0.00137836        0.00046144
     172         -1.074526        1.000000        0.00493117        0.00089150        0.00029779
     173         -1.074368        1.000000        0.00041408        0.00184263        0.00056952
     174         -1.073652        1.000000        0.00008169        0.00084853        0.00026610
     175         -1.072808        1.000000        0.00271703        0.00086185        0.00035659
     176         -1.072152        1.000000        0.00049858        0.00046565        0.00021855
     177         -1.071192        1.000000        0.00271449        0.00026510        0.00011148
     178         -1.070444        1.000000        0.00209752        0.00039450        0.00011169
     179         -1.070141        1.000000        0.00274816        0.00061055        0.00028534
     180         -1.069416        1.000000        0.00125647        0.00049342        0.00013853
     181         -1.069179        1.000000        0.00016670        0.00001381        0.00001029
     182         -1.067610        1.000000        0.00152285        0.00126011        0.00054322
     183         -1.066240        1.000000        0.00021034        0.00002645        0.00001766
     184         -1.065124        1.000000        0.00001369        0.00049663        0.00020077
     185         -1.064565        1.000000        0.00004289        0.00004639        0.00001440
     186         -1.063575        1.000000        0.00000222        0.00029598        0.00010130
     187         -1.062901        1.000000        0.00081010        0.00293995        0.00111066
     188         -1.062274        1.000000        0.00003224        0.00077554        0.00024476
     189         -1.061481        1.000000        0.00005655        0.00057463        0.00024241
     190         -1.061312        1.000000        0.00015920        0.00081130        0.00042430
     191         -1.060592        1.000000        0.00029420        0.00165356        0.00085102
     192         -1.059297        1.000000        0.00027958        0.00183427        0.00068033
     193         -1.058643        1.000000        0.00000238        0.00301397        0.00123541
     194         -1.058262        1.000000        0.00001911        0.00040467        0.00015053
     195         -1.057127        1.000000        0.00002160        0.00038261        0.00019242
     196         -1.056224        1.000000        0.00004749        0.00044821        0.00016340
     197         -1.056050        1.000000        0.00007842        0.00052373        0.00019622
     198         -1.054881        1.000000        0.00002756        0.00330440        0.00094081
     199         -1.054669        1.000000        0.00042332        0.00226985        0.00103977
     200         -1.053605        1.000000        0.00002222        0.00280045        0.00141165
     201         -1.053457        1.000000        0.00008918        0.00585936        0.00184972
     202         -1.052589        1.000000        0.00000688        0.00094878        0.00037084
     203         -1.052089        1.000000        0.00006672        0.00257083        0.00126575
     204         -1.051299        1.000000        0.00003932        0.01229709        0.00650665
     205         -1.050676        1.000000        0.00015832        0.01670888        0.00674258
     206         -1.050307        1.000000        0.00002809        0.00181095        0.00062336
     207         -1.049921        1.000000        0.00023406        0.02260727        0.00888256
     208         -1.049485        1.000000        0.00002971        0.01130370        0.00527273
     209         -1.049126        1.000000        0.00001301        0.00234758        0.00077615
     210         -1.048445        1.000000        0.00009427        0.00712232        0.00278078
     211         -1.048201        1.000000        0.00010569        0.01847335        0.00787243
     212         -1.047911        1.000000        0.00030671        0.01320743        0.00557566
     213         -1.047620        1.000000        0.00000110        0.00374581        0.00149095
     214         -1.046931        1.000000        0.00000142        0.00227312        0.00090138
     215         -1.046733        1.000000        0.00000949        0.00675277        0.00298191
     216         -1.046634        1.000000        0.00017226        0.02190508        0.00892866
     217         -1.045930        1.000000        0.00001219        0.00933176        0.00352435
     218         -1.045069        1.000000        0.00002336        0.00813261        0.00319139
     219         -1.044350        1.000000        0.00002335        0.00611720        0.00271514
     220         -1.043623        1.000000        0.00000024        0.00018464        0.00007801
     221         -1.043421        1.000000        0.00000545        0.00049045        0.00019888
     222         -1.042778        1.000000        0.00014323        0.02179888        0.00891045
     223         -1.042701        1.000000        0.00005195        0.00450298        0.00172770
     224         -1.042424        1.000000        0.00000086        0.00142427        0.00058305
     225         -1.041682        1.000000        0.00000922        0.00122911        0.00048306
     226         -1.041498        1.000000        0.00000202        0.00009744        0.00004305
     227         -1.040837        1.000000        0.00002596        0.00114978        0.00044967
     228         -1.040496        1.000000        0.00006411        0.00300899        0.00130073
     229         -1.040151        1.000000        0.00008429        0.00545746        0.00219867
     230         -1.039686        1.000000        0.00026497        0.01718672        0.00705950
     231         -1.038961        1.000000        0.00000624        0.00060989        0.00026240
     232         -1.038553        1.000000        0.00016019        0.01913637        0.00800908
     233         -1.038476        1.000000        0.00000690        0.00133776        0.00060326
     234         -1.038152        1.000000        0.00001034        0.00076413        0.00031572
     235         -1.038041        1.000000        0.00000453        0.00168708        0.00066247
     236         -1.036855        1.000000        0.00004610        0.00093310        0.00038805
     237         -1.036488        1.000000        0.00000347        0.00121886        0.00076843
     238         -1.036186        1.000000        0.00028628        0.00943047        0.00369128
     239         -1.036068        1.000000        0.00008419        0.00772409        0.00336471
     240         -1.035757        1.000000        0.00000095        0.00046369        0.00020723
     241         -1.035291        1.000000        0.00002762        0.00114719        0.00049874
     242         -1.035048        1.000000        0.00009628        0.00357093        0.00150988
     243         -1.035000        1.000000        0.00016136        0.00564551        0.00247212
     244         -1.034454        1.000000        0.00000159        0.00384282        0.00166280
     245         -1.034219        1.000000        0.00001258        0.00033092        0.00013903
     246         -1.033874        1.000000        0.00001063        0.00059428        0.00028490
     247         -1.033507        1.000000        0.00019060        0.01470090        0.00700038
     248         -1.033219        1.000000        0.00000765        0.00113798        0.00054842
     249         -1.033056        1.000000        0.00002424        0.00211014        0.00103259
     250         -1.032307        1.000000        0.00000326        0.00050643        0.00023260
     251         -1.031324        1.000000        0.00000498        0.00453839        0.00221487
     252         -1.031144        1.000000        0.00001370        0.01611482        0.00786839
     253         -1.030643        1.000000        0.00001377        0.00107721        0.00049934
     254         -1.030284        1.000000        0.00001166        0.00420002        0.00197668
     255         -1.030062        1.000000        0.00000017        0.00055275        0.00025152
     256         -1.029818        1.000000        0.00000100        0.00013543        0.00006288
     257         -1.028552        1.000000        0.00000456        0.00949620        0.00444740
     258         -1.027578        1.000000        0.00000520        0.00006263        0.00002843
     259         -1.027121        1.000000        0.00000227        0.00017552        0.00008097
     260         -1.026880        1.000000        0.00001971        0.00086801        0.00040002
     261         -1.026226        1.000000        0.00005828        0.00703112        0.00322669
     262         -1.025765        1.000000        0.00005732        0.00271726        0.00114692
     263         -1.025299        1.000000        0.00000241        0.00002607        0.00000955
     264         -1.025158        1.000000        0.00000912        0.00016001        0.00006881
     265         -1.025007        1.000000        0.00000187        0.00018041        0.00008843
     266         -1.024422        1.000000        0.00000004        0.00010073        0.00005129
     267         -1.023793        1.000000        0.00002752        0.00178226        0.00085411
     268         -1.023594        1.000000        0.00000002        0.00004490        0.00002153
     269         -1.023069        1.000000        0.00000140        0.00007694        0.00003669
     270         -1.022603        1.000000        0.00000306        0.00003414        0.00001304
     271         -1.022074        1.000000        0.00000025        0.00001655        0.00000750
     272         -1.021695        1.000000        0.00000023        0.00003560        0.00001581
     273         -1.021372        1.000000        0.00000871        0.00005240        0.00001550
     274         -1.021076        1.000000        0.00000000        0.00000011        0.00000007
     275         -1.019492        1.000000        0.00000124        0.00004548        0.00002023
     276         -1.018003        1.000000        0.00003727        0.00079047        0.00033146
     277         -1.016408        1.000000        0.00000403        0.00009835        0.00004370
     278         -1.016278        1.000000        0.00003644        0.00089361        0.00039737
     279         -1.015338        1.000000        0.00000052        0.00000822        0.00000368
     280         -1.013851        1.000000        0.00000777        0.00004379        0.00001808
     281         -1.010223        1.000000        0.00000001        0.00000065        0.00000042
     282         -1.009666        1.000000        0.00000046        0.00056774        0.00046052
     283         -1.007726        1.000000        0.00000008        0.00000057        0.00000025
     284         -1.007300        1.000000        0.00000129        0.00000462        0.00000185
     285         -1.006916        1.000000        0.00009605        0.00105477        0.00054494
     286         -0.889442        1.000000        0.00000000        0.00000000        0.00000000
     287         -0.869424        1.000000        0.00000000        0.00000000        0.00000000
     288         -0.867225        1.000000        0.00000000        0.00000000        0.00000000
     289         -0.864755        1.000000        0.00000000        0.00000000        0.00000000
     290         -0.860947        1.000000        0.00000000        0.00000000        0.00000000
     291         -0.846899        1.000000        0.00000000        0.00000000        0.00000000
     292         -0.844423        1.000000        0.00000000        0.00000000        0.00000000
     293         -0.843782        1.000000        0.00000000        0.00000000        0.00000000
     294         -0.840445        1.000000        0.00000000        0.00000000        0.00000000
     295         -0.821748        1.000000        0.00000000        0.00000000        0.00000000
     296         -0.818927        1.000000        0.00000000        0.00000000        0.00000000
     297         -0.814033        1.000000        0.00000000        0.00000000        0.00000000
     298         -0.808071        1.000000        0.00000000        0.00000000        0.00000000
     299         -0.807076        1.000000        0.00000000        0.00000000        0.00000000
     300         -0.806003        1.000000        0.00000000        0.00000000        0.00000000
     301         -0.805433        1.000000        0.00000000        0.00000000        0.00000000
     302         -0.803208        1.000000        0.00000000        0.00000000        0.00000000
     303         -0.802271        1.000000        0.00000000        0.00000000        0.00000000
     304         -0.801014        1.000000        0.00000000        0.00000000        0.00000000
     305         -0.800419        1.000000        0.00000000        0.00000000        0.00000000
     306         -0.800163        1.000000        0.00000000        0.00000000        0.00000000
     307         -0.798966        1.000000        0.00000000        0.00000000        0.00000000