# Projected DOS for list 274 of 1 atoms, at iteration step i = 0, E(Fermi) =    -0.245567 a.u.
#     MO Eigenvalue [a.u.]      Occupation                 s                 p
       1         -3.122063        1.000000        0.00000001        0.00000203
       2         -3.121278        1.000000        0.00000018        0.00001583
       3         -3.121021        1.000000        0.00000006        0.00000307
       4         -3.120578        1.000000        0.00000002        0.00000709
       5         -3.120271        1.000000        0.00000011        0.00000250
       6         -3.119857        1.000000        0.00000002        0.00000034
       7         -3.119652        1.000000        0.00000000        0.00000041
       8         -3.119624        1.000000        0.00000001        0.00000129
       9         -3.119219        1.000000        0.00000001        0.00000144
      10         -3.119023        1.000000        0.00000003        0.00000058
      11         -3.118913        1.000000        0.00000005        0.00000079
      12         -3.118874        1.000000        0.00000002        0.00000031
      13         -3.118317        1.000000        0.00000001        0.00000002
      14         -3.118249        1.000000        0.00000000        0.00000105
      15         -3.117895        1.000000        0.00000002        0.00000005
      16         -3.117383        1.000000        0.00000000        0.00000001
      17         -3.117165        1.000000        0.00000000        0.00000000
      18         -3.116815        1.000000        0.00000000        0.00000000
      19         -3.116436        1.000000        0.00000000        0.00000000
      20         -3.116021        1.000000        0.00000000        0.00000003
      21         -3.115852        1.000000        0.00000000        0.00000001
      22         -3.115668        1.000000        0.00000001        0.00000003
      23         -3.115368        1.000000        0.00000000        0.00000006
      24         -3.115339        1.000000        0.00000000        0.00000001
      25         -3.115041        1.000000        0.00000001        0.00000020
      26         -3.114366        1.000000        0.00000000        0.00000000
      27         -3.113951        1.000000        0.00000000        0.00000002
      28         -3.113764        1.000000        0.00000000        0.00000000
      29         -3.112534        1.000000        0.00000000        0.00000000
      30         -3.111679        1.000000        0.00000000        0.00000000
      31         -1.784233        1.000000        0.00000000        0.00000006
      32         -1.782870        1.000000        0.00000001        0.00000009
      33         -1.782324        1.000000        0.00000001        0.00000004
      34         -1.782130        1.000000        0.00000001        0.00000002
      35         -1.781736        1.000000        0.00000000        0.00000005
      36         -1.781230        1.000000        0.00000002        0.00000008
      37         -1.780847        1.000000        0.00000000        0.00000001
      38         -1.780487        1.000000        0.00000002        0.00000019
      39         -1.780184        1.000000        0.00000001        0.00000011
      40         -1.779550        1.000000        0.00000000        0.00000004
      41         -1.779259        1.000000        0.00000000        0.00000001
      42         -1.778921        1.000000        0.00000003        0.00000029
      43         -1.778390        1.000000        0.00000000        0.00000003
      44         -1.778140        1.000000        0.00000000        0.00000000
      45         -1.777912        1.000000        0.00000000        0.00000009
      46         -1.777514        1.000000        0.00000000        0.00000003
      47         -1.777362        1.000000        0.00000000        0.00000001
      48         -1.776787        1.000000        0.00000000        0.00000005
      49         -1.776537        1.000000        0.00000000        0.00000002
      50         -1.776457        1.000000        0.00000000        0.00000004
      51         -1.776029        1.000000        0.00000000        0.00000003
      52         -1.774038        1.000000        0.00000001        0.00000012
      53         -1.773797        1.000000        0.00000002        0.00000046
      54         -1.773665        1.000000        0.00000000        0.00000004
      55         -1.772725        1.000000        0.00000000        0.00000004
      56         -1.772546        1.000000        0.00000002        0.00000007
      57         -1.772041        1.000000        0.00000001        0.00000005
      58         -1.771662        1.000000        0.00000002        0.00000001
      59         -1.771364        1.000000        0.00000000        0.00000003
      60         -1.770813        1.000000        0.00000001        0.00000003
      61         -1.770640        1.000000        0.00000004        0.00000005
      62         -1.770449        1.000000        0.00000000        0.00000005
      63         -1.770188        1.000000        0.00000001        0.00000008
      64         -1.770126        1.000000        0.00000003        0.00000015
      65         -1.769991        1.000000        0.00000000        0.00000002
      66         -1.769845        1.000000        0.00000000        0.00000002
      67         -1.769763        1.000000        0.00000000        0.00000006
      68         -1.769661        1.000000        0.00000002        0.00000001
      69         -1.769465        1.000000        0.00000000        0.00000006
      70         -1.769351        1.000000        0.00000000        0.00000002
      71         -1.769328        1.000000        0.00000002        0.00000006
      72         -1.769216        1.000000        0.00000000        0.00000009
      73         -1.769129        1.000000        0.00000004        0.00000001
      74         -1.769070        1.000000        0.00000000        0.00000002
      75         -1.768941        1.000000        0.00000008        0.00000005
      76         -1.768822        1.000000        0.00000000        0.00000003
      77         -1.768707        1.000000        0.00000000        0.00000001
      78         -1.768585        1.000000        0.00000001        0.00000002
      79         -1.768439        1.000000        0.00000000        0.00000003
      80         -1.768329        1.000000        0.00000001        0.00000000
      81         -1.768089        1.000000        0.00000000        0.00000001
      82         -1.767883        1.000000        0.00000000        0.00000000
      83         -1.767662        1.000000        0.00000000        0.00000001
      84         -1.767495        1.000000        0.00000000        0.00000000
      85         -1.767311        1.000000        0.00000000        0.00000001
      86         -1.767266        1.000000        0.00000000        0.00000007
      87         -1.767060        1.000000        0.00000000        0.00000000
      88         -1.767025        1.000000        0.00000000        0.00000001
      89         -1.766872        1.000000        0.00000000        0.00000001
      90         -1.766524        1.000000        0.00000000        0.00000000
      91         -1.766405        1.000000        0.00000000        0.00000000
      92         -1.766254        1.000000        0.00000000        0.00000000
      93         -1.766123        1.000000        0.00000000        0.00000000
      94         -1.765857        1.000000        0.00000000        0.00000001
      95         -1.765515        1.000000        0.00000000        0.00000000
      96         -1.765181        1.000000        0.00000000        0.00000001
      97         -1.765105        1.000000        0.00000000        0.00000002
      98         -1.764967        1.000000        0.00000000        0.00000001
      99         -1.764710        1.000000        0.00000000        0.00000000
     100         -1.764440        1.000000        0.00000000        0.00000002
     101         -1.764248        1.000000        0.00000000        0.00000001
     102         -1.763945        1.000000        0.00000000        0.00000000
     103         -1.763804        1.000000        0.00000000        0.00000000
     104         -1.763351        1.000000        0.00000000        0.00000008
     105         -1.763205        1.000000        0.00000000        0.00000001
     106         -1.763107        1.000000        0.00000000        0.00000007
     107         -1.762531        1.000000        0.00000000        0.00000002
     108         -1.762343        1.000000        0.00000000        0.00000001
     109         -1.761453        1.000000        0.00000000        0.00000001
     110         -1.760969        1.000000        0.00000000        0.00000000
     111         -1.760481        1.000000        0.00000000        0.00000001
     112         -1.760009        1.000000        0.00000000        0.00000001
     113         -1.759531        1.000000        0.00000000        0.00000000
     114         -1.759105        1.000000        0.00000000        0.00000000
     115         -1.758777        1.000000        0.00000000        0.00000000
     116         -1.757462        1.000000        0.00000000        0.00000000
     117         -1.756221        1.000000        0.00000000        0.00000000
     118         -1.755333        1.000000        0.00000000        0.00000000
     119         -1.754385        1.000000        0.00000000        0.00000000
     120         -1.752742        1.000000        0.00000000        0.00000000
     121         -1.131181        1.000000        0.00018341        0.00021199
     122         -1.128658        1.000000        0.00028166        0.00030496
     123         -1.128000        1.000000        0.00030156        0.00031552
     124         -1.126427        1.000000        0.00001214        0.00001187
     125         -1.120469        1.000000        0.00007833        0.00005883
     126         -1.119202        1.000000        0.00023813        0.00018621
     127         -1.117081        1.000000        0.00018904        0.00013190
     128         -1.116156        1.000000        0.00147947        0.00112622
     129         -1.115054        1.000000        0.00010629        0.00009012
     130         -1.111818        1.000000        0.00222299        0.00138658
     131         -1.111610        1.000000        0.00361518        0.00246579
     132         -1.110976        1.000000        0.00071685        0.00044064
     133         -1.109888        1.000000        0.00081798        0.00057971
     134         -1.108601        1.000000        0.00008455        0.00006333
     135         -1.108036        1.000000        0.00006424        0.00003952
     136         -1.107349        1.000000        0.00007526        0.00007479
     137         -1.106797        1.000000        0.00072195        0.00048784
     138         -1.106077        1.000000        0.00307968        0.00179567
     139         -1.104162        1.000000        0.00154759        0.00084421
     140         -1.102892        1.000000        0.00095849        0.00035132
     141         -1.102196        1.000000        0.00054786        0.00025961
     142         -1.101581        1.000000        0.00007215        0.00002186
     143         -1.101215        1.000000        0.00063071        0.00037487
     144         -1.099602        1.000000        0.00003306        0.00002812
     145         -1.098107        1.000000        0.00135241        0.00049170
     146         -1.097450        1.000000        0.00129815        0.00041122
     147         -1.097046        1.000000        0.00001978        0.00001105
     148         -1.095795        1.000000        0.00471549        0.00159448
     149         -1.095192        1.000000        0.00021816        0.00007273
     150         -1.093515        1.000000        0.00193224        0.00052778
     151         -1.093123        1.000000        0.00066523        0.00016271
     152         -1.092614        1.000000        0.00140263        0.00051834
     153         -1.091821        1.000000        0.00017689        0.00014090
     154         -1.090761        1.000000        0.00260429        0.00066187
     155         -1.090597        1.000000        0.00000202        0.00000416
     156         -1.089544        1.000000        0.00000006        0.00000224
     157         -1.088154        1.000000        0.00027155        0.00023315
     158         -1.086960        1.000000        0.00010669        0.00005621
     159         -1.086718        1.000000        0.00051936        0.00029157
     160         -1.085525        1.000000        0.00000495        0.00013357
     161         -1.084219        1.000000        0.00175466        0.00026881
     162         -1.082734        1.000000        0.00057976        0.00051226
     163         -1.082381        1.000000        0.00541841        0.00092527
     164         -1.080807        1.000000        0.00548505        0.00056889
     165         -1.080293        1.000000        0.01663985        0.00100211
     166         -1.079453        1.000000        0.00000026        0.00000468
     167         -1.078246        1.000000        0.00057936        0.00035382
     168         -1.077774        1.000000        0.00768807        0.00049055
     169         -1.077143        1.000000        0.00020306        0.00000791
     170         -1.076426        1.000000        0.00006793        0.00011417
     171         -1.076145        1.000000        0.00087995        0.00029210
     172         -1.074526        1.000000        0.00338459        0.00305942
     173         -1.074368        1.000000        0.00108945        0.00148162
     174         -1.073652        1.000000        0.00216728        0.00062979
     175         -1.072808        1.000000        0.00061588        0.00131033
     176         -1.072152        1.000000        0.00002414        0.00031487
     177         -1.071192        1.000000        0.00015712        0.00034703
     178         -1.070444        1.000000        0.00001968        0.00060280
     179         -1.070141        1.000000        0.00013479        0.00127526
     180         -1.069416        1.000000        0.00008114        0.00042197
     181         -1.069179        1.000000        0.00027505        0.00267059
     182         -1.067610        1.000000        0.00025611        0.00022288
     183         -1.066240        1.000000        0.00005289        0.00013676
     184         -1.065124        1.000000        0.00031276        0.00192453
     185         -1.064565        1.000000        0.00098629        0.00242004
     186         -1.063575        1.000000        0.00341879        0.00397731
     187         -1.062901        1.000000        0.00170307        0.00389167
     188         -1.062274        1.000000        0.00183626        0.00341520
     189         -1.061481        1.000000        0.00088654        0.00080130
     190         -1.061312        1.000000        0.00382263        0.00427977
     191         -1.060592        1.000000        0.00000555        0.00011450
     192         -1.059297        1.000000        0.00015326        0.00063028
     193         -1.058643        1.000000        0.00337784        0.00327778
     194         -1.058262        1.000000        0.00094323        0.00076427
     195         -1.057127        1.000000        0.00062997        0.00122606
     196         -1.056224        1.000000        0.00131510        0.00202377
     197         -1.056050        1.000000        0.00006962        0.00008204
     198         -1.054881        1.000000        0.00392104        0.00480830
     199         -1.054669        1.000000        0.00062756        0.00108434
     200         -1.053605        1.000000        0.00014293        0.00018163
     201         -1.053457        1.000000        0.00047837        0.00057078
     202         -1.052589        1.000000        0.00069922        0.00036618
     203         -1.052089        1.000000        0.00000122        0.00003309
     204         -1.051299        1.000000        0.00001176        0.00002914
     205         -1.050676        1.000000        0.00000772        0.00001423
     206         -1.050307        1.000000        0.00017531        0.00022312
     207         -1.049921        1.000000        0.00000735        0.00002773
     208         -1.049485        1.000000        0.00000034        0.00001550
     209         -1.049126        1.000000        0.00000810        0.00005414
     210         -1.048445        1.000000        0.00000081        0.00000477
     211         -1.048201        1.000000        0.00001131        0.00001671
     212         -1.047911        1.000000        0.00002531        0.00004312
     213         -1.047620        1.000000        0.00017384        0.00017892
     214         -1.046931        1.000000        0.00046139        0.00024426
     215         -1.046733        1.000000        0.00100241        0.00082335
     216         -1.046634        1.000000        0.00010870        0.00018010
     217         -1.045930        1.000000        0.00018825        0.00012176
     218         -1.045069        1.000000        0.00222073        0.00177355
     219         -1.044350        1.000000        0.00002656        0.00001396
     220         -1.043623        1.000000        0.00084404        0.00055423
     221         -1.043421        1.000000        0.02153607        0.01604299
     222         -1.042778        1.000000        0.00061755        0.00043082
     223         -1.042701        1.000000        0.00031324        0.00031019
     224         -1.042424        1.000000        0.00063554        0.00054044
     225         -1.041682        1.000000        0.00005351        0.00002291
     226         -1.041498        1.000000        0.00092044        0.00072249
     227         -1.040837        1.000000        0.00204834        0.00148341
     228         -1.040496        1.000000        0.00001152        0.00001227
     229         -1.040151        1.000000        0.00092758        0.00075256
     230         -1.039686        1.000000        0.00004144        0.00003791
     231         -1.038961        1.000000        0.00071198        0.00045472
     232         -1.038553        1.000000        0.00003628        0.00004059
     233         -1.038476        1.000000        0.00039413        0.00025711
     234         -1.038152        1.000000        0.00036076        0.00018687
     235         -1.038041        1.000000        0.00020834        0.00010422
     236         -1.036855        1.000000        0.00127432        0.00088692
     237         -1.036488        1.000000        0.00004232        0.00006409
     238         -1.036186        1.000000        0.00045201        0.00031606
     239         -1.036068        1.000000        0.00023904        0.00010828
     240         -1.035757        1.000000        0.00022908        0.00024158
     241         -1.035291        1.000000        0.00048491        0.00028061
     242         -1.035048        1.000000        0.00001837        0.00004802
     243         -1.035000        1.000000        0.00000210        0.00001012
     244         -1.034454        1.000000        0.00024057        0.00017874
     245         -1.034219        1.000000        0.00032938        0.00029125
     246         -1.033874        1.000000        0.00209156        0.00150188
     247         -1.033507        1.000000        0.00015659        0.00010756
     248         -1.033219        1.000000        0.00201562        0.00159904
     249         -1.033056        1.000000        0.00049961        0.00037887
     250         -1.032307        1.000000        0.00105961        0.00070793
     251         -1.031324        1.000000        0.00153374        0.00085860
     252         -1.031144        1.000000        0.00000116        0.00000983
     253         -1.030643        1.000000        0.00106215        0.00066131
     254         -1.030284        1.000000        0.00001651        0.00001616
     255         -1.030062        1.000000        0.00002195        0.00001417
     256         -1.029818        1.000000        0.00026739        0.00013349
     257         -1.028552        1.000000        0.00000997        0.00001026
     258         -1.027578        1.000000        0.00022554        0.00014374
     259         -1.027121        1.000000        0.00000103        0.00000231
     260         -1.026880        1.000000        0.00024375        0.00005561
     261         -1.026226        1.000000        0.00000622        0.00001103
     262         -1.025765        1.000000        0.00000015        0.00000098
     263         -1.025299        1.000000        0.00000572        0.00000094
     264         -1.025158        1.000000        0.00000719        0.00000563
     265         -1.025007        1.000000        0.00011145        0.00004603
     266         -1.024422        1.000000        0.00017805        0.00009006
     267         -1.023793        1.000000        0.00002098        0.00001308
     268         -1.023594        1.000000        0.00000002        0.00000013
     269         -1.023069        1.000000        0.00029411        0.00018239
     270         -1.022603        1.000000        0.00006147        0.00003859
     271         -1.022074        1.000000        0.00002279        0.00001989
     272         -1.021695        1.000000        0.00001521        0.00000851
     273         -1.021372        1.000000        0.00000126        0.00000107
     274         -1.021076        1.000000        0.00008831        0.00005163
     275         -1.019492        1.000000        0.00687383        0.00461382
     276         -1.018003        1.000000        0.00007365        0.00004911
     277         -1.016408        1.000000        0.00002062        0.00001430
     278         -1.016278        1.000000        0.00001261        0.00000976
     279         -1.015338        1.000000        0.00011476        0.00006078
     280         -1.013851        1.000000        0.00000070        0.00000039
     281         -1.010223        1.000000        0.00252824        0.00137215
     282         -1.009666        1.000000        0.00000003        0.00000006
     283         -1.007726        1.000000        0.00001034        0.00001616
     284         -1.007300        1.000000        0.00001433        0.00001212
     285         -1.006916        1.000000        0.00000008        0.00000007
     286         -0.889442        1.000000        0.00000056        0.00003545
     287         -0.869424        1.000000        0.00000007        0.00000791
     288         -0.867225        1.000000        0.00000142        0.00006029
     289         -0.864755        1.000000        0.00000021        0.00003539
     290         -0.860947        1.000000        0.00000004        0.00001310
     291         -0.846899        1.000000        0.00000002        0.00002978
     292         -0.844423        1.000000        0.00000042        0.00000656
     293         -0.843782        1.000000        0.00000009        0.00002492
     294         -0.840445        1.000000        0.00000001        0.00000843
     295         -0.821748        1.000000        0.00000017        0.00000602
     296         -0.818927        1.000000        0.00000030        0.00000557
     297         -0.814033        1.000000        0.00000053        0.00004708
     298         -0.808071        1.000000        0.00000018        0.00004954
     299         -0.807076        1.000000        0.00000001        0.00000945
     300         -0.806003        1.000000        0.00000011        0.00002768
     301         -0.805433        1.000000        0.00000118        0.00000378
     302         -0.803208        1.000000        0.00000029        0.00000660
     303         -0.802271        1.000000        0.00000012        0.00001679
     304         -0.801014        1.000000        0.00000005        0.00000608
     305         -0.800419        1.000000        0.00000030        0.00000109
     306         -0.800163        1.000000        0.00000021        0.00001035
     307         -0.798966        1.000000        0.00000005        0.00000528
     308         -0.796270        1.000000        0.00000047        0.00000351
     309         -0.795746        1.000000        0.00000004        0.00000275
     310         -0.794333        1.000000        0.00000001        0.00000916
     311         -0.792293        1.000000        0.00000005        0.00001479
     312         -0.791548        1.000000        0.00000032        0.00000654
     313         -0.790603        1.000000        0.00000031        0.00000129
     314         -0.790424        1.000000        0.00000009        0.00000092
     315         -0.789930        1.000000        0.00000141        0.00000052
     316         -0.788450        1.000000        0.00000011        0.00000144
     317         -0.787526        1.000000        0.00000009        0.00000020
     318         -0.786788        1.000000        0.00000022        0.00000109
     319         -0.781836        1.000000        0.00000021        0.00000575
     320         -0.780998        1.000000        0.00000053        0.00000395
     321         -0.780477        1.000000        0.00000007        0.00000110
     322         -0.779060        1.000000        0.00000000        0.00000108
     323         -0.778943        1.000000        0.00000011        0.00000273
     324         -0.777233        1.000000        0.00000001        0.00000041
     325         -0.775897        1.000000        0.00000041        0.00000036
     326         -0.774887        1.000000        0.00000004        0.00000006
     327         -0.773671        1.000000        0.00000036        0.00000449
     328         -0.773422        1.000000        0.00000000        0.00000040
     329         -0.772414        1.000000        0.00000057        0.00000147
     330         -0.771266        1.000000        0.00000039        0.00000074
     331         -0.770604        1.000000        0.00000013        0.00000045
     332         -0.769886        1.000000        0.00000034        0.00000212
     333         -0.769439        1.000000        0.00000038        0.00000094
     334         -0.769009        1.000000        0.00000003        0.00000094
     335         -0.767483        1.000000        0.00000002        0.00000177
     336         -0.766717        1.000000        0.00000013        0.00000128
     337         -0.765490        1.000000        0.00000024        0.00000166
     338         -0.763700        1.000000        0.00000003        0.00000043
     339         -0.762625        1.000000        0.00000004        0.00000023
     340         -0.761653        1.000000        0.00000019        0.00000064
     341         -0.761196        1.000000        0.00000020        0.00000060
     342         -0.759265        1.000000        0.00000008        0.00000148
     343         -0.758410        1.000000        0.00000081        0.00000080
     344         -0.755260        1.000000        0.00000013        0.00000031
     345         -0.754586        1.000000        0.00000002        0.00000016
     346         -0.703685        1.000000        0.00012079        0.00001665
     347         -0.693847        1.000000        0.00009233        0.00001172
     348         -0.690060        1.000000        0.00047612        0.00005762
     349         -0.688902        1.000000        0.00006901        0.00000924
     350         -0.684111        1.000000        0.00027357        0.00003461
     351         -0.681092        1.000000        0.00001831        0.00000189
     352         -0.678905        1.000000        0.00041324        0.00004798
     353         -0.676982        1.000000        0.00018403        0.00001493
     354         -0.673929        1.000000        0.00047791        0.00004259
     355         -0.673106        1.000000        0.00019211        0.00001316
     356         -0.670728        1.000000        0.00071923        0.00007408
     357         -0.670092        1.000000        0.00066130        0.00006886
     358         -0.669168        1.000000        0.00002363        0.00000640
     359         -0.667801        1.000000        0.00099796        0.00008924
     360         -0.665884        1.000000        0.00000031        0.00000180
     361         -0.664702        1.000000        0.00000116        0.00000118
     362         -0.662263        1.000000        0.00089990        0.00008310
     363         -0.660875        1.000000        0.00222893        0.00025051
     364         -0.658191        1.000000        0.00003336        0.00000315
     365         -0.657373        1.000000        0.00012006        0.00000551
     366         -0.655967        1.000000        0.00144312        0.00010703
     367         -0.655536        1.000000        0.00006279        0.00001093
     368         -0.653752        1.000000        0.00076023        0.00005787
     369         -0.651127        1.000000        0.00001794        0.00000096
     370         -0.648938        1.000000        0.00006010        0.00000413
     371         -0.647875        1.000000        0.00006087        0.00001971
     372         -0.644925        1.000000        0.00304220        0.00026606
     373         -0.644581        1.000000        0.00184910        0.00020575
     374         -0.641910        1.000000        0.00005193        0.00000058
     375         -0.641212        1.000000        0.00146678        0.00015141
     376         -0.639876        1.000000        0.00028666        0.00000430
     377         -0.637901        1.000000        0.00035559        0.00002685