# Projected DOS for atomic kind Ow at iteration step i = 0, E(Fermi) =    -0.245567 a.u.
#     MO Eigenvalue [a.u.]      Occupation                 s                 p                 d
       1         -3.122063        1.000000        0.00000422        0.00002099        0.00000366
       2         -3.121278        1.000000        0.00000217        0.00000741        0.00000199
       3         -3.121021        1.000000        0.00000136        0.00000793        0.00000158
       4         -3.120578        1.000000        0.00000073        0.00000310        0.00000150
       5         -3.120271        1.000000        0.00000044        0.00000333        0.00000099
       6         -3.119857        1.000000        0.00000035        0.00000157        0.00000063
       7         -3.119652        1.000000        0.00000323        0.00001146        0.00000318
       8         -3.119624        1.000000        0.00000074        0.00000388        0.00000143
       9         -3.119219        1.000000        0.00000081        0.00000351        0.00000151
      10         -3.119023        1.000000        0.00000037        0.00000169        0.00000113
      11         -3.118913        1.000000        0.00000041        0.00000161        0.00000089
      12         -3.118874        1.000000        0.00000026        0.00000133        0.00000043
      13         -3.118317        1.000000        0.00000298        0.00001110        0.00000313
      14         -3.118249        1.000000        0.00000199        0.00000789        0.00000231
      15         -3.117895        1.000000        0.00000150        0.00000658        0.00000168
      16         -3.117383        1.000000        0.00000044        0.00000315        0.00000096
      17         -3.117165        1.000000        0.00000079        0.00000534        0.00000163
      18         -3.116815        1.000000        0.00000546        0.00002361        0.00000384
      19         -3.116436        1.000000        0.00000204        0.00001019        0.00000220
      20         -3.116021        1.000000        0.00000237        0.00000712        0.00000246
      21         -3.115852        1.000000        0.00000118        0.00000622        0.00000121
      22         -3.115668        1.000000        0.00000238        0.00000757        0.00000242
      23         -3.115368        1.000000        0.00000093        0.00000357        0.00000110
      24         -3.115339        1.000000        0.00000062        0.00000307        0.00000101
      25         -3.115041        1.000000        0.00000056        0.00000406        0.00000092
      26         -3.114366        1.000000        0.00000458        0.00002004        0.00000391
      27         -3.113951        1.000000        0.00000030        0.00000177        0.00000046
      28         -3.113764        1.000000        0.00000183        0.00001058        0.00000176
      29         -3.112534        1.000000        0.00000116        0.00000504        0.00000098
      30         -3.111679        1.000000        0.00000205        0.00000815        0.00000176
      31         -1.784233        1.000000        0.00000024        0.00000111        0.00000021
      32         -1.782870        1.000000        0.00000007        0.00000054        0.00000017
      33         -1.782324        1.000000        0.00000014        0.00000070        0.00000009
      34         -1.782130        1.000000        0.00000013        0.00000071        0.00000016
      35         -1.781736        1.000000        0.00000023        0.00000099        0.00000018
      36         -1.781230        1.000000        0.00000019        0.00000079        0.00000014
      37         -1.780847        1.000000        0.00000009        0.00000057        0.00000017
      38         -1.780487        1.000000        0.00000021        0.00000116        0.00000022
      39         -1.780184        1.000000        0.00000050        0.00000198        0.00000025
      40         -1.779550        1.000000        0.00000008        0.00000084        0.00000022
      41         -1.779259        1.000000        0.00000017        0.00000118        0.00000033
      42         -1.778921        1.000000        0.00000031        0.00000170        0.00000025
      43         -1.778390        1.000000        0.00000083        0.00000309        0.00000036
      44         -1.778140        1.000000        0.00000046        0.00000195        0.00000026
      45         -1.777912        1.000000        0.00000006        0.00000054        0.00000018
      46         -1.777514        1.000000        0.00000016        0.00000109        0.00000024
      47         -1.777362        1.000000        0.00000017        0.00000112        0.00000024
      48         -1.776787        1.000000        0.00000037        0.00000185        0.00000035
      49         -1.776537        1.000000        0.00000022        0.00000139        0.00000030
      50         -1.776457        1.000000        0.00000023        0.00000126        0.00000026
      51         -1.776029        1.000000        0.00000073        0.00000277        0.00000032
      52         -1.774038        1.000000        0.00000010        0.00000071        0.00000015
      53         -1.773797        1.000000        0.00000010        0.00000051        0.00000010
      54         -1.773665        1.000000        0.00000010        0.00000055        0.00000015
      55         -1.772725        1.000000        0.00000004        0.00000024        0.00000007
      56         -1.772546        1.000000        0.00000009        0.00000034        0.00000007
      57         -1.772041        1.000000        0.00000014        0.00000066        0.00000029
      58         -1.771662        1.000000        0.00000009        0.00000068        0.00000013
      59         -1.771364        1.000000        0.00000004        0.00000019        0.00000007
      60         -1.770813        1.000000        0.00000017        0.00000076        0.00000020
      61         -1.770640        1.000000        0.00000021        0.00000148        0.00000042
      62         -1.770449        1.000000        0.00000020        0.00000108        0.00000021
      63         -1.770188        1.000000        0.00000025        0.00000108        0.00000018
      64         -1.770126        1.000000        0.00000026        0.00000096        0.00000025
      65         -1.769991        1.000000        0.00000006        0.00000034        0.00000017
      66         -1.769845        1.000000        0.00000014        0.00000072        0.00000034
      67         -1.769763        1.000000        0.00000017        0.00000106        0.00000027
      68         -1.769661        1.000000        0.00000014        0.00000082        0.00000022
      69         -1.769465        1.000000        0.00000025        0.00000112        0.00000020
      70         -1.769351        1.000000        0.00000014        0.00000107        0.00000035
      71         -1.769328        1.000000        0.00000031        0.00000122        0.00000021
      72         -1.769216        1.000000        0.00000021        0.00000082        0.00000018
      73         -1.769129        1.000000        0.00000059        0.00000303        0.00000065
      74         -1.769070        1.000000        0.00000013        0.00000094        0.00000024
      75         -1.768941        1.000000        0.00000063        0.00000299        0.00000073
      76         -1.768822        1.000000        0.00000050        0.00000221        0.00000043
      77         -1.768707        1.000000        0.00000014        0.00000076        0.00000023
      78         -1.768585        1.000000        0.00000022        0.00000096        0.00000023
      79         -1.768439        1.000000        0.00000017        0.00000124        0.00000030
      80         -1.768329        1.000000        0.00000035        0.00000175        0.00000041
      81         -1.768089        1.000000        0.00000015        0.00000088        0.00000044
      82         -1.767883        1.000000        0.00000013        0.00000179        0.00000065
      83         -1.767662        1.000000        0.00000104        0.00000392        0.00000068
      84         -1.767495        1.000000        0.00000033        0.00000164        0.00000033
      85         -1.767311        1.000000        0.00000024        0.00000150        0.00000037
      86         -1.767266        1.000000        0.00000031        0.00000143        0.00000028
      87         -1.767060        1.000000        0.00000087        0.00000387        0.00000068
      88         -1.767025        1.000000        0.00000050        0.00000307        0.00000094
      89         -1.766872        1.000000        0.00000017        0.00000095        0.00000019
      90         -1.766524        1.000000        0.00000050        0.00000235        0.00000051
      91         -1.766405        1.000000        0.00000016        0.00000080        0.00000023
      92         -1.766254        1.000000        0.00000177        0.00000709        0.00000116
      93         -1.766123        1.000000        0.00000052        0.00000233        0.00000041
      94         -1.765857        1.000000        0.00000028        0.00000140        0.00000032
      95         -1.765515        1.000000        0.00000064        0.00000324        0.00000069
      96         -1.765181        1.000000        0.00000101        0.00000452        0.00000078
      97         -1.765105        1.000000        0.00000055        0.00000245        0.00000048
      98         -1.764967        1.000000        0.00000023        0.00000128        0.00000029
      99         -1.764710        1.000000        0.00000043        0.00000216        0.00000047
     100         -1.764440        1.000000        0.00000011        0.00000073        0.00000028
     101         -1.764248        1.000000        0.00000044        0.00000181        0.00000026
     102         -1.763945        1.000000        0.00000099        0.00000491        0.00000105
     103         -1.763804        1.000000        0.00000156        0.00000687        0.00000116
     104         -1.763351        1.000000        0.00000039        0.00000138        0.00000015
     105         -1.763205        1.000000        0.00000022        0.00000126        0.00000026
     106         -1.763107        1.000000        0.00000019        0.00000085        0.00000013
     107         -1.762531        1.000000        0.00000007        0.00000039        0.00000008
     108         -1.762343        1.000000        0.00000028        0.00000102        0.00000013
     109         -1.761453        1.000000        0.00000027        0.00000113        0.00000014
     110         -1.760969        1.000000        0.00000014        0.00000068        0.00000012
     111         -1.760481        1.000000        0.00000016        0.00000069        0.00000016
     112         -1.760009        1.000000        0.00000010        0.00000047        0.00000006
     113         -1.759531        1.000000        0.00000012        0.00000051        0.00000008
     114         -1.759105        1.000000        0.00000022        0.00000088        0.00000011
     115         -1.758777        1.000000        0.00000001        0.00000009        0.00000003
     116         -1.757462        1.000000        0.00000001        0.00000007        0.00000002
     117         -1.756221        1.000000        0.00000003        0.00000019        0.00000005
     118         -1.755333        1.000000        0.00000001        0.00000009        0.00000002
     119         -1.754385        1.000000        0.00000001        0.00000007        0.00000002
     120         -1.752742        1.000000        0.00000002        0.00000009        0.00000002
     121         -1.131181        1.000000        0.00029890        0.00003221        0.00001333
     122         -1.128658        1.000000        0.00059415        0.00006519        0.00002881
     123         -1.128000        1.000000        0.00064599        0.00006235        0.00002672
     124         -1.126427        1.000000        0.00004486        0.00000442        0.00000211
     125         -1.120469        1.000000        0.00027415        0.00002993        0.00001348
     126         -1.119202        1.000000        0.00043208        0.00005265        0.00002611
     127         -1.117081        1.000000        0.00148813        0.00010044        0.00003893
     128         -1.116156        1.000000        0.00251916        0.00026664        0.00011135
     129         -1.115054        1.000000        0.00124368        0.00015283        0.00005802
     130         -1.111818        1.000000        0.00201342        0.00017414        0.00007534
     131         -1.111610        1.000000        0.00123291        0.00014657        0.00005624
     132         -1.110976        1.000000        0.00052233        0.00003794        0.00001674
     133         -1.109888        1.000000        0.00089944        0.00008495        0.00003341
     134         -1.108601        1.000000        0.00014279        0.00004033        0.00001043
     135         -1.108036        1.000000        0.00132301        0.00007140        0.00002236
     136         -1.107349        1.000000        0.00162038        0.00011990        0.00004332
     137         -1.106797        1.000000        0.00042340        0.00005246        0.00001774
     138         -1.106077        1.000000        0.00169662        0.00019731        0.00007090
     139         -1.104162        1.000000        0.00725787        0.00043564        0.00007193
     140         -1.102892        1.000000        0.00201294        0.00023157        0.00007022
     141         -1.102196        1.000000        0.00105408        0.00010058        0.00004822
     142         -1.101581        1.000000        0.00176362        0.00019139        0.00003601
     143         -1.101215        1.000000        0.00267314        0.00016597        0.00003858
     144         -1.099602        1.000000        0.00334958        0.00022015        0.00004019
     145         -1.098107        1.000000        0.00614520        0.00025044        0.00007671
     146         -1.097450        1.000000        0.00644843        0.00030314        0.00009056
     147         -1.097046        1.000000        0.00263459        0.00021351        0.00005785
     148         -1.095795        1.000000        0.00560247        0.00029234        0.00007847
     149         -1.095192        1.000000        0.00748842        0.00035721        0.00007981
     150         -1.093515        1.000000        0.00384236        0.00019572        0.00006346
     151         -1.093123        1.000000        0.02984427        0.00095380        0.00018269
     152         -1.092614        1.000000        0.00440616        0.00031873        0.00009267
     153         -1.091821        1.000000        0.00239204        0.00027818        0.00007019
     154         -1.090761        1.000000        0.02479134        0.00084099        0.00010378
     155         -1.090597        1.000000        0.18873153        0.00492703        0.00050764
     156         -1.089544        1.000000        0.14145826        0.00417525        0.00033392
     157         -1.088154        1.000000        0.09059482        0.00280550        0.00027862
     158         -1.086960        1.000000        0.03354110        0.00093065        0.00007650
     159         -1.086718        1.000000        0.02294043        0.00074679        0.00005586
     160         -1.085525        1.000000        0.03959588        0.00139720        0.00025012
     161         -1.084219        1.000000        0.00552903        0.00017800        0.00004133
     162         -1.082734        1.000000        0.02433538        0.00073520        0.00009328
     163         -1.082381        1.000000        0.08944542        0.00262401        0.00040672
     164         -1.080807        1.000000        0.02040812        0.00070407        0.00017291
     165         -1.080293        1.000000        0.06225455        0.00175259        0.00030787
     166         -1.079453        1.000000        0.03016993        0.00099744        0.00022158
     167         -1.078246        1.000000        0.00566728        0.00032689        0.00007272
     168         -1.077774        1.000000        0.07614345        0.00231907        0.00030884
     169         -1.077143        1.000000        0.02102903        0.00067996        0.00014840
     170         -1.076426        1.000000        0.00273588        0.00013137        0.00002309
     171         -1.076145        1.000000        0.02596862        0.00085519        0.00011089
     172         -1.074526        1.000000        0.09364161        0.00315949        0.00025609
     173         -1.074368        1.000000        0.05004410        0.00167087        0.00017134
     174         -1.073652        1.000000        0.08185048        0.00237978        0.00030304
     175         -1.072808        1.000000        0.02095887        0.00095886        0.00020467
     176         -1.072152        1.000000        0.00706601        0.00036160        0.00006051
     177         -1.071192        1.000000        0.01160187        0.00072612        0.00012438
     178         -1.070444        1.000000        0.08005295        0.00224965        0.00033115
     179         -1.070141        1.000000        0.10633158        0.00340465        0.00043978
     180         -1.069416        1.000000        0.02350268        0.00084302        0.00010423
     181         -1.069179        1.000000        0.03396016        0.00142430        0.00020500
     182         -1.067610        1.000000        0.04349984        0.00175899        0.00027661
     183         -1.066240        1.000000        0.04774407        0.00181807        0.00020239
     184         -1.065124        1.000000        0.02399181        0.00103943        0.00014030
     185         -1.064565        1.000000        0.04713231        0.00223703        0.00023999
     186         -1.063575        1.000000        0.06005955        0.00247387        0.00028236
     187         -1.062901        1.000000        0.10018389        0.00300485        0.00029256
     188         -1.062274        1.000000        0.07367770        0.00249882        0.00028802
     189         -1.061481        1.000000        0.04872702        0.00164764        0.00014680
     190         -1.061312        1.000000        0.03598155        0.00149874        0.00018922
     191         -1.060592        1.000000        0.04279584        0.00177930        0.00016884
     192         -1.059297        1.000000        0.02164861        0.00089708        0.00007691
     193         -1.058643        1.000000        0.04446076        0.00167213        0.00016958
     194         -1.058262        1.000000        0.10492906        0.00429228        0.00059674
     195         -1.057127        1.000000        0.09729933        0.00335633        0.00035595
     196         -1.056224        1.000000        0.14221825        0.00455000        0.00060284
     197         -1.056050        1.000000        0.05968821        0.00194413        0.00035042
     198         -1.054881        1.000000        0.11710186        0.00416352        0.00044651
     199         -1.054669        1.000000        0.02465297        0.00089434        0.00010194
     200         -1.053605        1.000000        0.01709309        0.00070274        0.00015211
     201         -1.053457        1.000000        0.02912819        0.00101426        0.00014513
     202         -1.052589        1.000000        0.01984448        0.00068959        0.00007905
     203         -1.052089        1.000000        0.04149820        0.00143842        0.00022445
     204         -1.051299        1.000000        0.03407836        0.00146398        0.00021611
     205         -1.050676        1.000000        0.03987028        0.00155962        0.00024750
     206         -1.050307        1.000000        0.02712848        0.00118369        0.00012858
     207         -1.049921        1.000000        0.07285882        0.00283780        0.00040665
     208         -1.049485        1.000000        0.02260384        0.00080937        0.00010616
     209         -1.049126        1.000000        0.01303543        0.00048197        0.00005754
     210         -1.048445        1.000000        0.02571917        0.00149254        0.00023097
     211         -1.048201        1.000000        0.02062797        0.00112296        0.00015245
     212         -1.047911        1.000000        0.02469706        0.00119687        0.00018985
     213         -1.047620        1.000000        0.01721276        0.00074250        0.00008956
     214         -1.046931        1.000000        0.02070074        0.00098213        0.00014681
     215         -1.046733        1.000000        0.00837569        0.00079299        0.00012859
     216         -1.046634        1.000000        0.03380181        0.00150438        0.00019688
     217         -1.045930        1.000000        0.00701302        0.00035199        0.00005220
     218         -1.045069        1.000000        0.01151493        0.00092061        0.00014843
     219         -1.044350        1.000000        0.00488221        0.00020918        0.00002159
     220         -1.043623        1.000000        0.03388072        0.00256624        0.00034329
     221         -1.043421        1.000000        0.07921575        0.00440287        0.00066517
     222         -1.042778        1.000000        0.00113218        0.00012997        0.00002339
     223         -1.042701        1.000000        0.00999324        0.00036198        0.00004821
     224         -1.042424        1.000000        0.02782937        0.00109506        0.00015301
     225         -1.041682        1.000000        0.02268303        0.00132813        0.00020725
     226         -1.041498        1.000000        0.03647236        0.00197899        0.00032839
     227         -1.040837        1.000000        0.04704298        0.00242866        0.00031867
     228         -1.040496        1.000000        0.00643553        0.00032030        0.00004830
     229         -1.040151        1.000000        0.02150377        0.00091713        0.00011337
     230         -1.039686        1.000000        0.00578683        0.00025045        0.00002870
     231         -1.038961        1.000000        0.01026288        0.00043320        0.00005283
     232         -1.038553        1.000000        0.00560022        0.00054540        0.00010109
     233         -1.038476        1.000000        0.01294031        0.00054970        0.00006826
     234         -1.038152        1.000000        0.00190164        0.00011353        0.00001753
     235         -1.038041        1.000000        0.00060219        0.00006915        0.00001415
     236         -1.036855        1.000000        0.01999979        0.00081797        0.00010642
     237         -1.036488        1.000000        0.01662941        0.00076568        0.00009949
     238         -1.036186        1.000000        0.00247986        0.00012250        0.00001729
     239         -1.036068        1.000000        0.00195533        0.00019305        0.00003543
     240         -1.035757        1.000000        0.00984405        0.00056644        0.00006646
     241         -1.035291        1.000000        0.01629498        0.00081352        0.00007911
     242         -1.035048        1.000000        0.00278704        0.00040374        0.00008988
     243         -1.035000        1.000000        0.00166894        0.00027002        0.00005058
     244         -1.034454        1.000000        0.00552595        0.00027190        0.00003994
     245         -1.034219        1.000000        0.00983707        0.00064763        0.00013513
     246         -1.033874        1.000000        0.01756345        0.00098489        0.00010763
     247         -1.033507        1.000000        0.00103045        0.00008653        0.00001297
     248         -1.033219        1.000000        0.01586004        0.00081996        0.00009335
     249         -1.033056        1.000000        0.00739872        0.00042162        0.00004584
     250         -1.032307        1.000000        0.00915209        0.00064945        0.00010250
     251         -1.031324        1.000000        0.02598081        0.00157264        0.00022315
     252         -1.031144        1.000000        0.00717182        0.00094079        0.00019831
     253         -1.030643        1.000000        0.00803838        0.00122106        0.00031738
     254         -1.030284        1.000000        0.00836820        0.00043273        0.00006471
     255         -1.030062        1.000000        0.00437788        0.00032254        0.00007196
     256         -1.029818        1.000000        0.00437243        0.00042748        0.00007905
     257         -1.028552        1.000000        0.00041631        0.00017278        0.00004625
     258         -1.027578        1.000000        0.00614249        0.00068577        0.00010266
     259         -1.027121        1.000000        0.00327284        0.00020064        0.00003380
     260         -1.026880        1.000000        0.01568658        0.00139008        0.00031323
     261         -1.026226        1.000000        0.00261957        0.00052626        0.00013990
     262         -1.025765        1.000000        0.00520527        0.00031314        0.00005314
     263         -1.025299        1.000000        0.00118519        0.00005476        0.00000822
     264         -1.025158        1.000000        0.04933909        0.00179101        0.00020355
     265         -1.025007        1.000000        0.04383377        0.00229948        0.00034053
     266         -1.024422        1.000000        0.00994568        0.00102811        0.00020490
     267         -1.023793        1.000000        0.00384820        0.00022518        0.00003677
     268         -1.023594        1.000000        0.24377697        0.00874682        0.00090056
     269         -1.023069        1.000000        0.02185838        0.00267858        0.00058923
     270         -1.022603        1.000000        0.00907111        0.00117815        0.00026824
     271         -1.022074        1.000000        0.00621138        0.00077152        0.00015642
     272         -1.021695        1.000000        0.00449592        0.00035531        0.00006865
     273         -1.021372        1.000000        0.00023496        0.00001913        0.00000342
     274         -1.021076        1.000000        0.02119966        0.00237330        0.00043876
     275         -1.019492        1.000000        0.00733322        0.00064225        0.00014078
     276         -1.018003        1.000000        0.00018878        0.00002933        0.00000598
     277         -1.016408        1.000000        0.00957972        0.00191128        0.00038744
     278         -1.016278        1.000000        0.00123257        0.00022239        0.00004693
     279         -1.015338        1.000000        0.00018186        0.00004548        0.00000513
     280         -1.013851        1.000000        0.00001765        0.00000628        0.00000133
     281         -1.010223        1.000000        0.00263735        0.00046733        0.00011314
     282         -1.009666        1.000000        0.00000037        0.00000014        0.00000003
     283         -1.007726        1.000000        0.03866248        0.00814920        0.00112292
     284         -1.007300        1.000000        0.00400724        0.00083664        0.00011597
     285         -1.006916        1.000000        0.00001593        0.00000335        0.00000047
     286         -0.889442        1.000000        0.00012997        0.00009153        0.00003151
     287         -0.869424        1.000000        0.00012721        0.00011655        0.00003704
     288         -0.867225        1.000000        0.00012356        0.00011352        0.00003352
     289         -0.864755        1.000000        0.00012073        0.00011802        0.00003115
     290         -0.860947        1.000000        0.00007233        0.00007996        0.00002868
     291         -0.846899        1.000000        0.00011810        0.00015958        0.00004255
     292         -0.844423        1.000000        0.00003596        0.00005826        0.00001902
     293         -0.843782        1.000000        0.00017730        0.00014151        0.00003295
     294         -0.840445        1.000000        0.00007658        0.00011032        0.00003573
     295         -0.821748        1.000000        0.00012009        0.00022629        0.00005590
     296         -0.818927        1.000000        0.00005579        0.00013015        0.00003040
     297         -0.814033        1.000000        0.00014015        0.00018244        0.00005074
     298         -0.808071        1.000000        0.00008210        0.00013930        0.00003739
     299         -0.807076        1.000000        0.00011264        0.00017173        0.00004163
     300         -0.806003        1.000000        0.00011937        0.00020026        0.00004871
     301         -0.805433        1.000000        0.00007339        0.00013115        0.00003249
     302         -0.803208        1.000000        0.00008277        0.00016232        0.00003967
     303         -0.802271        1.000000        0.00016510        0.00019435        0.00003801
     304         -0.801014        1.000000        0.00003059        0.00003549        0.00000971
     305         -0.800419        1.000000        0.00007139        0.00012526        0.00003057
     306         -0.800163        1.000000        0.00006807        0.00013204        0.00004180
     307         -0.798966        1.000000        0.00004330        0.00009300        0.00002430