# Projected DOS for list 305 of 1 atoms, at iteration step i = 0, E(Fermi) =    -0.245567 a.u.
#     MO Eigenvalue [a.u.]      Occupation                 s                 p                 d
       1         -3.122063        1.000000        0.00001021        0.00002754        0.00000389
       2         -3.121278        1.000000        0.00002887        0.00006205        0.00000552
       3         -3.121021        1.000000        0.00022891        0.00043761        0.00003456
       4         -3.120578        1.000000        0.00029172        0.00043463        0.00002898
       5         -3.120271        1.000000        0.00210389        0.00349251        0.00021636
       6         -3.119857        1.000000        0.00005054        0.00015405        0.00001541
       7         -3.119652        1.000000        0.00001895        0.00003194        0.00000125
       8         -3.119624        1.000000        0.00004136        0.00009854        0.00000535
       9         -3.119219        1.000000        0.00001157        0.00029186        0.00003971
      10         -3.119023        1.000000        0.00001113        0.00005060        0.00001409
      11         -3.118913        1.000000        0.00002037        0.00019902        0.00002706
      12         -3.118874        1.000000        0.00004655        0.00051339        0.00006536
      13         -3.118317        1.000000        0.00199364        0.00554387        0.00053369
      14         -3.118249        1.000000        0.00015437        0.00041234        0.00004558
      15         -3.117895        1.000000        0.00000082        0.00000584        0.00000057
      16         -3.117383        1.000000        0.00000519        0.00000626        0.00000081
      17         -3.117165        1.000000        0.00000068        0.00000859        0.00000134
      18         -3.116815        1.000000        0.00000819        0.00002951        0.00000229
      19         -3.116436        1.000000        0.00000287        0.00002028        0.00000194
      20         -3.116021        1.000000        0.00000013        0.00000202        0.00000059
      21         -3.115852        1.000000        0.00000122        0.00002977        0.00000328
      22         -3.115668        1.000000        0.00017974        0.00055958        0.00009214
      23         -3.115368        1.000000        0.00004111        0.00015993        0.00001607
      24         -3.115339        1.000000        0.00009005        0.00049611        0.00003549
      25         -3.115041        1.000000        0.00170648        0.00581168        0.00076768
      26         -3.114366        1.000000        0.00000533        0.00003222        0.00000479
      27         -3.113951        1.000000        0.00018243        0.00069481        0.00008697
      28         -3.113764        1.000000        0.00000404        0.00005435        0.00000770
      29         -3.112534        1.000000        0.00000268        0.00010057        0.00001097
      30         -3.111679        1.000000        0.00000006        0.00000037        0.00000002
      31         -1.784233        1.000000        0.00019472        0.00056751        0.00004813
      32         -1.782870        1.000000        0.00000281        0.00011377        0.00006334
      33         -1.782324        1.000000        0.00000395        0.00005186        0.00001630
      34         -1.782130        1.000000        0.00000894        0.00008958        0.00003210
      35         -1.781736        1.000000        0.00021647        0.00054862        0.00003033
      36         -1.781230        1.000000        0.00017132        0.00056949        0.00007017
      37         -1.780847        1.000000        0.00039559        0.00099773        0.00005653
      38         -1.780487        1.000000        0.00019107        0.00052383        0.00004363
      39         -1.780184        1.000000        0.00005659        0.00016337        0.00002251
      40         -1.779550        1.000000        0.00044371        0.00125382        0.00012881
      41         -1.779259        1.000000        0.00005867        0.00014395        0.00002178
      42         -1.778921        1.000000        0.00008637        0.00038309        0.00006373
      43         -1.778390        1.000000        0.00000001        0.00006951        0.00003947
      44         -1.778140        1.000000        0.00000030        0.00000319        0.00000461
      45         -1.777912        1.000000        0.00001635        0.00014878        0.00005603
      46         -1.777514        1.000000        0.00007221        0.00016202        0.00001298
      47         -1.777362        1.000000        0.00043333        0.00102765        0.00005646
      48         -1.776787        1.000000        0.00004349        0.00018778        0.00005494
      49         -1.776537        1.000000        0.00000008        0.00002394        0.00000905
      50         -1.776457        1.000000        0.00000039        0.00002816        0.00001388
      51         -1.776029        1.000000        0.00002412        0.00012892        0.00002975
      52         -1.774038        1.000000        0.00000940        0.00004774        0.00003103
      53         -1.773797        1.000000        0.00030973        0.00062166        0.00003861
      54         -1.773665        1.000000        0.00000427        0.00023142        0.00011533
      55         -1.772725        1.000000        0.00029970        0.00064936        0.00005849
      56         -1.772546        1.000000        0.00002733        0.00006407        0.00000341
      57         -1.772041        1.000000        0.00023256        0.00056637        0.00006759
      58         -1.771662        1.000000        0.00017829        0.00049853        0.00008694
      59         -1.771364        1.000000        0.00002381        0.00007372        0.00001082
      60         -1.770813        1.000000        0.00016044        0.00044073        0.00008589
      61         -1.770640        1.000000        0.00005992        0.00037659        0.00013682
      62         -1.770449        1.000000        0.00011927        0.00038270        0.00005905
      63         -1.770188        1.000000        0.00006708        0.00015078        0.00002871
      64         -1.770126        1.000000        0.00011065        0.00044282        0.00012882
      65         -1.769991        1.000000        0.00019242        0.00105773        0.00024789
      66         -1.769845        1.000000        0.00000241        0.00007410        0.00002723
      67         -1.769763        1.000000        0.00000193        0.00003908        0.00001970
      68         -1.769661        1.000000        0.00002965        0.00024277        0.00007362
      69         -1.769465        1.000000        0.00015679        0.00037558        0.00004809
      70         -1.769351        1.000000        0.00005489        0.00018217        0.00004463
      71         -1.769328        1.000000        0.00000995        0.00005181        0.00002126
      72         -1.769216        1.000000        0.00000038        0.00011985        0.00006977
      73         -1.769129        1.000000        0.00002209        0.00039025        0.00016039
      74         -1.769070        1.000000        0.00000668        0.00036449        0.00014592
      75         -1.768941        1.000000        0.00000758        0.00001800        0.00000462
      76         -1.768822        1.000000        0.00000325        0.00066547        0.00027703
      77         -1.768707        1.000000        0.00013527        0.00066667        0.00023323
      78         -1.768585        1.000000        0.00002869        0.00017431        0.00003972
      79         -1.768439        1.000000        0.00000460        0.00004777        0.00001508
      80         -1.768329        1.000000        0.00008350        0.00055169        0.00017475
      81         -1.768089        1.000000        0.00007919        0.00054068        0.00020417
      82         -1.767883        1.000000        0.00000234        0.00058640        0.00025919
      83         -1.767662        1.000000        0.00002173        0.00031168        0.00012703
      84         -1.767495        1.000000        0.00000033        0.00028762        0.00011139
      85         -1.767311        1.000000        0.00001948        0.00008673        0.00001900
      86         -1.767266        1.000000        0.00000117        0.00029012        0.00013169
      87         -1.767060        1.000000        0.00004520        0.00065977        0.00027736
      88         -1.767025        1.000000        0.00003396        0.00011079        0.00002015
      89         -1.766872        1.000000        0.00002621        0.00016172        0.00005379
      90         -1.766524        1.000000        0.00007747        0.00041520        0.00013661
      91         -1.766405        1.000000        0.00002747        0.00033174        0.00013282
      92         -1.766254        1.000000        0.00004829        0.00026300        0.00007378
      93         -1.766123        1.000000        0.00000872        0.00027421        0.00013660
      94         -1.765857        1.000000        0.00000802        0.00017763        0.00009302
      95         -1.765515        1.000000        0.00000062        0.00001209        0.00002078
      96         -1.765181        1.000000        0.00000137        0.00000696        0.00000940
      97         -1.765105        1.000000        0.00000697        0.00003649        0.00001382
      98         -1.764967        1.000000        0.00000831        0.00017260        0.00007373
      99         -1.764710        1.000000        0.00000079        0.00001120        0.00001146
     100         -1.764440        1.000000        0.00002610        0.00010089        0.00003849
     101         -1.764248        1.000000        0.00000785        0.00001572        0.00000277
     102         -1.763945        1.000000        0.00000412        0.00020019        0.00009731
     103         -1.763804        1.000000        0.00000103        0.00010066        0.00005281
     104         -1.763351        1.000000        0.00000293        0.00006939        0.00003503
     105         -1.763205        1.000000        0.00000471        0.00001298        0.00000453
     106         -1.763107        1.000000        0.00005281        0.00017880        0.00003622
     107         -1.762531        1.000000        0.00000014        0.00006622        0.00010569
     108         -1.762343        1.000000        0.00003012        0.00023757        0.00010310
     109         -1.761453        1.000000        0.00000205        0.00001524        0.00001174
     110         -1.760969        1.000000        0.00000502        0.00013420        0.00009963
     111         -1.760481        1.000000        0.00000708        0.00005464        0.00002010
     112         -1.760009        1.000000        0.00012415        0.00069643        0.00032073
     113         -1.759531        1.000000        0.00000002        0.00001049        0.00001219
     114         -1.759105        1.000000        0.00000016        0.00006699        0.00004654
     115         -1.758777        1.000000        0.00000069        0.00010569        0.00002783
     116         -1.757462        1.000000        0.00000099        0.00019532        0.00007335
     117         -1.756221        1.000000        0.00000088        0.00007591        0.00005969
     118         -1.755333        1.000000        0.00000131        0.00006086        0.00005974
     119         -1.754385        1.000000        0.00000177        0.00022229        0.00016317
     120         -1.752742        1.000000        0.00000016        0.00004399        0.00003098
     121         -1.131181        1.000000        0.00000018        0.00000022        0.00000001
     122         -1.128658        1.000000        0.00000003        0.00000004        0.00000000
     123         -1.128000        1.000000        0.00000011        0.00000012        0.00000000
     124         -1.126427        1.000000        0.00000000        0.00000000        0.00000000
     125         -1.120469        1.000000        0.00000002        0.00000003        0.00000000
     126         -1.119202        1.000000        0.00000001        0.00000001        0.00000000
     127         -1.117081        1.000000        0.00000004        0.00000006        0.00000000
     128         -1.116156        1.000000        0.00000000        0.00000007        0.00000001
     129         -1.115054        1.000000        0.00000080        0.00000118        0.00000006
     130         -1.111818        1.000000        0.00000020        0.00000027        0.00000002
     131         -1.111610        1.000000        0.00000048        0.00000076        0.00000005
     132         -1.110976        1.000000        0.00000022        0.00000029        0.00000002
     133         -1.109888        1.000000        0.00000054        0.00000080        0.00000005
     134         -1.108601        1.000000        0.00000001        0.00000000        0.00000000
     135         -1.108036        1.000000        0.00000012        0.00000018        0.00000001
     136         -1.107349        1.000000        0.00000000        0.00000004        0.00000000
     137         -1.106797        1.000000        0.00000002        0.00000004        0.00000000
     138         -1.106077        1.000000        0.00000012        0.00000037        0.00000003
     139         -1.104162        1.000000        0.00000000        0.00000010        0.00000001
     140         -1.102892        1.000000        0.00000007        0.00000007        0.00000000
     141         -1.102196        1.000000        0.00000001        0.00000003        0.00000000
     142         -1.101581        1.000000        0.00000001        0.00000004        0.00000000
     143         -1.101215        1.000000        0.00000001        0.00000006        0.00000001
     144         -1.099602        1.000000        0.00000000        0.00000001        0.00000000
     145         -1.098107        1.000000        0.00000000        0.00000000        0.00000000
     146         -1.097450        1.000000        0.00000000        0.00000001        0.00000000
     147         -1.097046        1.000000        0.00000004        0.00000006        0.00000001
     148         -1.095795        1.000000        0.00000002        0.00000004        0.00000001
     149         -1.095192        1.000000        0.00000001        0.00000003        0.00000000
     150         -1.093515        1.000000        0.00000000        0.00000001        0.00000000
     151         -1.093123        1.000000        0.00000002        0.00000001        0.00000000
     152         -1.092614        1.000000        0.00000000        0.00000000        0.00000000
     153         -1.091821        1.000000        0.00000000        0.00000001        0.00000000
     154         -1.090761        1.000000        0.00000001        0.00000001        0.00000001
     155         -1.090597        1.000000        0.00000000        0.00000001        0.00000000
     156         -1.089544        1.000000        0.00000001        0.00000005        0.00000001
     157         -1.088154        1.000000        0.00000002        0.00000001        0.00000000
     158         -1.086960        1.000000        0.00000003        0.00000003        0.00000000
     159         -1.086718        1.000000        0.00000001        0.00000002        0.00000000
     160         -1.085525        1.000000        0.00000005        0.00000007        0.00000001
     161         -1.084219        1.000000        0.00000003        0.00000003        0.00000000
     162         -1.082734        1.000000        0.00000000        0.00000001        0.00000000
     163         -1.082381        1.000000        0.00000001        0.00000008        0.00000001
     164         -1.080807        1.000000        0.00000004        0.00000006        0.00000001
     165         -1.080293        1.000000        0.00000008        0.00000019        0.00000003
     166         -1.079453        1.000000        0.00000010        0.00000006        0.00000001
     167         -1.078246        1.000000        0.00000002        0.00000001        0.00000000
     168         -1.077774        1.000000        0.00000031        0.00000047        0.00000005
     169         -1.077143        1.000000        0.00000000        0.00000003        0.00000000
     170         -1.076426        1.000000        0.00000001        0.00000002        0.00000000
     171         -1.076145        1.000000        0.00000001        0.00000009        0.00000001
     172         -1.074526        1.000000        0.00000012        0.00000026        0.00000002
     173         -1.074368        1.000000        0.00000005        0.00000023        0.00000002
     174         -1.073652        1.000000        0.00000045        0.00000044        0.00000006
     175         -1.072808        1.000000        0.00000001        0.00000003        0.00000000
     176         -1.072152        1.000000        0.00000004        0.00000003        0.00000000
     177         -1.071192        1.000000        0.00000007        0.00000028        0.00000002
     178         -1.070444        1.000000        0.00000031        0.00000009        0.00000002
     179         -1.070141        1.000000        0.00000037        0.00000056        0.00000008
     180         -1.069416        1.000000        0.00000001        0.00000001        0.00000000
     181         -1.069179        1.000000        0.00000013        0.00000014        0.00000002
     182         -1.067610        1.000000        0.00000003        0.00000008        0.00000001
     183         -1.066240        1.000000        0.00000000        0.00000004        0.00000001
     184         -1.065124        1.000000        0.00000004        0.00000012        0.00000002
     185         -1.064565        1.000000        0.00000035        0.00000096        0.00000012
     186         -1.063575        1.000000        0.00000028        0.00000058        0.00000008
     187         -1.062901        1.000000        0.00000041        0.00000088        0.00000011
     188         -1.062274        1.000000        0.00000029        0.00000076        0.00000010
     189         -1.061481        1.000000        0.00000004        0.00000017        0.00000003
     190         -1.061312        1.000000        0.00000048        0.00000088        0.00000014
     191         -1.060592        1.000000        0.00000002        0.00000002        0.00000000
     192         -1.059297        1.000000        0.00000011        0.00000016        0.00000002
     193         -1.058643        1.000000        0.00000067        0.00000133        0.00000020
     194         -1.058262        1.000000        0.00000004        0.00000007        0.00000001
     195         -1.057127        1.000000        0.00000005        0.00000009        0.00000002
     196         -1.056224        1.000000        0.00000113        0.00000313        0.00000031
     197         -1.056050        1.000000        0.00000008        0.00000027        0.00000003
     198         -1.054881        1.000000        0.00000033        0.00000049        0.00000015
     199         -1.054669        1.000000        0.00000024        0.00000071        0.00000008
     200         -1.053605        1.000000        0.00000000        0.00000003        0.00000001
     201         -1.053457        1.000000        0.00000004        0.00000007        0.00000002
     202         -1.052589        1.000000        0.00000018        0.00000040        0.00000008
     203         -1.052089        1.000000        0.00000011        0.00000050        0.00000004
     204         -1.051299        1.000000        0.00000003        0.00000004        0.00000000
     205         -1.050676        1.000000        0.00000006        0.00000008        0.00000000
     206         -1.050307        1.000000        0.00000019        0.00000027        0.00000004
     207         -1.049921        1.000000        0.00000001        0.00000002        0.00000000
     208         -1.049485        1.000000        0.00000001        0.00000006        0.00000001
     209         -1.049126        1.000000        0.00000005        0.00000017        0.00000003
     210         -1.048445        1.000000        0.00000005        0.00000027        0.00000002
     211         -1.048201        1.000000        0.00000003        0.00000005        0.00000001
     212         -1.047911        1.000000        0.00000006        0.00000035        0.00000004
     213         -1.047620        1.000000        0.00000007        0.00000007        0.00000003
     214         -1.046931        1.000000        0.00000002        0.00000006        0.00000001
     215         -1.046733        1.000000        0.00000014        0.00000061        0.00000004
     216         -1.046634        1.000000        0.00000016        0.00000073        0.00000002
     217         -1.045930        1.000000        0.00000002        0.00000008        0.00000000
     218         -1.045069        1.000000        0.00000036        0.00000157        0.00000005
     219         -1.044350        1.000000        0.00000002        0.00000004        0.00000001
     220         -1.043623        1.000000        0.00000023        0.00000090        0.00000007
     221         -1.043421        1.000000        0.00000120        0.00000371        0.00000021
     222         -1.042778        1.000000        0.00000002        0.00000006        0.00000000
     223         -1.042701        1.000000        0.00000012        0.00000043        0.00000005
     224         -1.042424        1.000000        0.00000017        0.00000062        0.00000007
     225         -1.041682        1.000000        0.00000000        0.00000002        0.00000000
     226         -1.041498        1.000000        0.00000002        0.00000008        0.00000000
     227         -1.040837        1.000000        0.00000013        0.00000053        0.00000004
     228         -1.040496        1.000000        0.00000000        0.00000000        0.00000000
     229         -1.040151        1.000000        0.00000014        0.00000052        0.00000007
     230         -1.039686        1.000000        0.00000001        0.00000003        0.00000001
     231         -1.038961        1.000000        0.00000008        0.00000027        0.00000003
     232         -1.038553        1.000000        0.00000000        0.00000001        0.00000001
     233         -1.038476        1.000000        0.00000006        0.00000022        0.00000004
     234         -1.038152        1.000000        0.00000001        0.00000002        0.00000000
     235         -1.038041        1.000000        0.00000000        0.00000000        0.00000000
     236         -1.036855        1.000000        0.00000013        0.00000066        0.00000008
     237         -1.036488        1.000000        0.00000002        0.00000008        0.00000004
     238         -1.036186        1.000000        0.00000003        0.00000014        0.00000001
     239         -1.036068        1.000000        0.00000001        0.00000004        0.00000000
     240         -1.035757        1.000000        0.00000010        0.00000047        0.00000001
     241         -1.035291        1.000000        0.00000002        0.00000007        0.00000002
     242         -1.035048        1.000000        0.00000005        0.00000020        0.00000000
     243         -1.035000        1.000000        0.00000003        0.00000013        0.00000000
     244         -1.034454        1.000000        0.00000001        0.00000003        0.00000001
     245         -1.034219        1.000000        0.00000002        0.00000013        0.00000003
     246         -1.033874        1.000000        0.00000007        0.00000015        0.00000005
     247         -1.033507        1.000000        0.00000000        0.00000000        0.00000000
     248         -1.033219        1.000000        0.00000005        0.00000013        0.00000004
     249         -1.033056        1.000000        0.00000002        0.00000006        0.00000002
     250         -1.032307        1.000000        0.00000004        0.00000007        0.00000002
     251         -1.031324        1.000000        0.00000018        0.00000064        0.00000003
     252         -1.031144        1.000000        0.00000003        0.00000014        0.00000000
     253         -1.030643        1.000000        0.00000001        0.00000004        0.00000001
     254         -1.030284        1.000000        0.00000001        0.00000002        0.00000001
     255         -1.030062        1.000000        0.00000000        0.00000001        0.00000001
     256         -1.029818        1.000000        0.00000002        0.00000012        0.00000000
     257         -1.028552        1.000000        0.00000003        0.00000015        0.00000000
     258         -1.027578        1.000000        0.00000003        0.00000024        0.00000000
     259         -1.027121        1.000000        0.00000000        0.00000002        0.00000000
     260         -1.026880        1.000000        0.00000001        0.00000004        0.00000000
     261         -1.026226        1.000000        0.00000004        0.00000018        0.00000000
     262         -1.025765        1.000000        0.00000000        0.00000001        0.00000000
     263         -1.025299        1.000000        0.00000000        0.00000000        0.00000000
     264         -1.025158        1.000000        0.00000000        0.00000002        0.00000000
     265         -1.025007        1.000000        0.00000001        0.00000001        0.00000000
     266         -1.024422        1.000000        0.00000000        0.00000002        0.00000000
     267         -1.023793        1.000000        0.00000000        0.00000000        0.00000000
     268         -1.023594        1.000000        0.00000002        0.00000003        0.00000000
     269         -1.023069        1.000000        0.00000000        0.00000001        0.00000000
     270         -1.022603        1.000000        0.00000000        0.00000000        0.00000000
     271         -1.022074        1.000000        0.00000000        0.00000007        0.00000001
     272         -1.021695        1.000000        0.00000000        0.00000000        0.00000000
     273         -1.021372        1.000000        0.00000000        0.00000001        0.00000000
     274         -1.021076        1.000000        0.00000011        0.00000075        0.00000003
     275         -1.019492        1.000000        0.00000005        0.00000014        0.00000002
     276         -1.018003        1.000000        0.00000000        0.00000001        0.00000000
     277         -1.016408        1.000000        0.00000007        0.00000068        0.00000003
     278         -1.016278        1.000000        0.00000001        0.00000006        0.00000000
     279         -1.015338        1.000000        0.00000001        0.00000006        0.00000000
     280         -1.013851        1.000000        0.00000000        0.00000000        0.00000000
     281         -1.010223        1.000000        0.00000002        0.00000004        0.00000001
     282         -1.009666        1.000000        0.00000000        0.00000000        0.00000000
     283         -1.007726        1.000000        0.00000000        0.00000000        0.00000000
     284         -1.007300        1.000000        0.00000000        0.00000000        0.00000000
     285         -1.006916        1.000000        0.00000000        0.00000000        0.00000000
     286         -0.889442        1.000000        0.00985487        0.00052456        0.00001182
     287         -0.869424        1.000000        0.00366734        0.00026325        0.00001388
     288         -0.867225        1.000000        0.00316988        0.00113853        0.00003735
     289         -0.864755        1.000000        0.00558334        0.00155704        0.00005901
     290         -0.860947        1.000000        0.01909109        0.00127810        0.00002031
     291         -0.846899        1.000000        0.00000401        0.00075040        0.00002492
     292         -0.844423        1.000000        0.01918436        0.00082037        0.00001086
     293         -0.843782        1.000000        0.00061845        0.00083227        0.00004441
     294         -0.840445        1.000000        0.00034160        0.00074699        0.00003905
     295         -0.821748        1.000000        0.00393517        0.00067408        0.00003987
     296         -0.818927        1.000000        0.01493004        0.00078151        0.00010094
     297         -0.814033        1.000000        0.02181498        0.00044355        0.00015713
     298         -0.808071        1.000000        0.00873748        0.00169466        0.00003414
     299         -0.807076        1.000000        0.00000051        0.00001464        0.00005085
     300         -0.806003        1.000000        0.00141541        0.00005174        0.00007083
     301         -0.805433        1.000000        0.00221982        0.00009002        0.00003384
     302         -0.803208        1.000000        0.01286963        0.00020281        0.00004387
     303         -0.802271        1.000000        0.00557966        0.00067078        0.00010697
     304         -0.801014        1.000000        0.01487876        0.00430314        0.00007414
     305         -0.800419        1.000000        0.00858016        0.00098205        0.00003837
     306         -0.800163        1.000000        0.00884454        0.00041387        0.00007432
     307         -0.798966        1.000000        0.00484592        0.00007393        0.00009663