# Projected DOS for list 78 of 1 atoms, at iteration step i = 0, E(Fermi) =    -0.245567 a.u.
#     MO Eigenvalue [a.u.]      Occupation                 s                 p                 d
       1         -3.122063        1.000000        0.00000000        0.00000000        0.00000000
       2         -3.121278        1.000000        0.00000000        0.00000000        0.00000000
       3         -3.121021        1.000000        0.00000000        0.00000000        0.00000000
       4         -3.120578        1.000000        0.00000000        0.00000000        0.00000000
       5         -3.120271        1.000000        0.00000000        0.00000000        0.00000000
       6         -3.119857        1.000000        0.00000000        0.00000000        0.00000000
       7         -3.119652        1.000000        0.00000001        0.00000001        0.00000000
       8         -3.119624        1.000000        0.00000000        0.00000000        0.00000000
       9         -3.119219        1.000000        0.00000000        0.00000000        0.00000000
      10         -3.119023        1.000000        0.00000000        0.00000000        0.00000000
      11         -3.118913        1.000000        0.00000000        0.00000000        0.00000000
      12         -3.118874        1.000000        0.00000000        0.00000000        0.00000000
      13         -3.118317        1.000000        0.00000000        0.00000000        0.00000000
      14         -3.118249        1.000000        0.00000000        0.00000000        0.00000000
      15         -3.117895        1.000000        0.00000000        0.00000000        0.00000000
      16         -3.117383        1.000000        0.00000000        0.00000000        0.00000000
      17         -3.117165        1.000000        0.00000000        0.00000000        0.00000000
      18         -3.116815        1.000000        0.00000001        0.00000000        0.00000000
      19         -3.116436        1.000000        0.00000000        0.00000000        0.00000000
      20         -3.116021        1.000000        0.00000000        0.00000000        0.00000000
      21         -3.115852        1.000000        0.00000000        0.00000000        0.00000000
      22         -3.115668        1.000000        0.00000000        0.00000000        0.00000000
      23         -3.115368        1.000000        0.00000000        0.00000000        0.00000000
      24         -3.115339        1.000000        0.00000000        0.00000000        0.00000000
      25         -3.115041        1.000000        0.00000000        0.00000000        0.00000000
      26         -3.114366        1.000000        0.00000000        0.00000000        0.00000000
      27         -3.113951        1.000000        0.00000000        0.00000000        0.00000000
      28         -3.113764        1.000000        0.00000000        0.00000000        0.00000000
      29         -3.112534        1.000000        0.00000000        0.00000000        0.00000000
      30         -3.111679        1.000000        0.00000000        0.00000000        0.00000000
      31         -1.784233        1.000000        0.00000000        0.00000000        0.00000000
      32         -1.782870        1.000000        0.00000000        0.00000000        0.00000000
      33         -1.782324        1.000000        0.00000000        0.00000000        0.00000000
      34         -1.782130        1.000000        0.00000000        0.00000000        0.00000000
      35         -1.781736        1.000000        0.00000000        0.00000000        0.00000000
      36         -1.781230        1.000000        0.00000000        0.00000000        0.00000000
      37         -1.780847        1.000000        0.00000000        0.00000000        0.00000000
      38         -1.780487        1.000000        0.00000000        0.00000000        0.00000000
      39         -1.780184        1.000000        0.00000000        0.00000000        0.00000000
      40         -1.779550        1.000000        0.00000000        0.00000000        0.00000000
      41         -1.779259        1.000000        0.00000000        0.00000000        0.00000000
      42         -1.778921        1.000000        0.00000000        0.00000000        0.00000000
      43         -1.778390        1.000000        0.00000000        0.00000000        0.00000000
      44         -1.778140        1.000000        0.00000000        0.00000000        0.00000000
      45         -1.777912        1.000000        0.00000000        0.00000000        0.00000000
      46         -1.777514        1.000000        0.00000000        0.00000000        0.00000000
      47         -1.777362        1.000000        0.00000000        0.00000000        0.00000000
      48         -1.776787        1.000000        0.00000000        0.00000000        0.00000000
      49         -1.776537        1.000000        0.00000000        0.00000000        0.00000000
      50         -1.776457        1.000000        0.00000000        0.00000000        0.00000000
      51         -1.776029        1.000000        0.00000000        0.00000000        0.00000000
      52         -1.774038        1.000000        0.00000000        0.00000000        0.00000000
      53         -1.773797        1.000000        0.00000000        0.00000000        0.00000000
      54         -1.773665        1.000000        0.00000000        0.00000000        0.00000000
      55         -1.772725        1.000000        0.00000000        0.00000000        0.00000000
      56         -1.772546        1.000000        0.00000000        0.00000000        0.00000000
      57         -1.772041        1.000000        0.00000000        0.00000000        0.00000000
      58         -1.771662        1.000000        0.00000000        0.00000000        0.00000000
      59         -1.771364        1.000000        0.00000000        0.00000000        0.00000000
      60         -1.770813        1.000000        0.00000000        0.00000000        0.00000000
      61         -1.770640        1.000000        0.00000000        0.00000000        0.00000000
      62         -1.770449        1.000000        0.00000000        0.00000000        0.00000000
      63         -1.770188        1.000000        0.00000000        0.00000000        0.00000000
      64         -1.770126        1.000000        0.00000000        0.00000000        0.00000000
      65         -1.769991        1.000000        0.00000000        0.00000000        0.00000000
      66         -1.769845        1.000000        0.00000000        0.00000000        0.00000000
      67         -1.769763        1.000000        0.00000000        0.00000000        0.00000000
      68         -1.769661        1.000000        0.00000000        0.00000000        0.00000000
      69         -1.769465        1.000000        0.00000000        0.00000000        0.00000000
      70         -1.769351        1.000000        0.00000000        0.00000000        0.00000000
      71         -1.769328        1.000000        0.00000000        0.00000000        0.00000000
      72         -1.769216        1.000000        0.00000000        0.00000000        0.00000000
      73         -1.769129        1.000000        0.00000000        0.00000000        0.00000000
      74         -1.769070        1.000000        0.00000000        0.00000000        0.00000000
      75         -1.768941        1.000000        0.00000000        0.00000000        0.00000000
      76         -1.768822        1.000000        0.00000000        0.00000000        0.00000000
      77         -1.768707        1.000000        0.00000000        0.00000000        0.00000000
      78         -1.768585        1.000000        0.00000000        0.00000000        0.00000000
      79         -1.768439        1.000000        0.00000000        0.00000000        0.00000000
      80         -1.768329        1.000000        0.00000000        0.00000000        0.00000000
      81         -1.768089        1.000000        0.00000000        0.00000000        0.00000000
      82         -1.767883        1.000000        0.00000000        0.00000000        0.00000000
      83         -1.767662        1.000000        0.00000000        0.00000000        0.00000000
      84         -1.767495        1.000000        0.00000000        0.00000000        0.00000000
      85         -1.767311        1.000000        0.00000000        0.00000000        0.00000000
      86         -1.767266        1.000000        0.00000000        0.00000000        0.00000000
      87         -1.767060        1.000000        0.00000000        0.00000000        0.00000000
      88         -1.767025        1.000000        0.00000000        0.00000000        0.00000000
      89         -1.766872        1.000000        0.00000000        0.00000000        0.00000000
      90         -1.766524        1.000000        0.00000000        0.00000000        0.00000000
      91         -1.766405        1.000000        0.00000000        0.00000000        0.00000000
      92         -1.766254        1.000000        0.00000000        0.00000000        0.00000000
      93         -1.766123        1.000000        0.00000000        0.00000000        0.00000000
      94         -1.765857        1.000000        0.00000000        0.00000000        0.00000000
      95         -1.765515        1.000000        0.00000000        0.00000000        0.00000000
      96         -1.765181        1.000000        0.00000000        0.00000000        0.00000000
      97         -1.765105        1.000000        0.00000000        0.00000000        0.00000000
      98         -1.764967        1.000000        0.00000000        0.00000000        0.00000000
      99         -1.764710        1.000000        0.00000000        0.00000000        0.00000000
     100         -1.764440        1.000000        0.00000000        0.00000000        0.00000000
     101         -1.764248        1.000000        0.00000000        0.00000000        0.00000000
     102         -1.763945        1.000000        0.00000000        0.00000000        0.00000000
     103         -1.763804        1.000000        0.00000000        0.00000000        0.00000000
     104         -1.763351        1.000000        0.00000000        0.00000000        0.00000000
     105         -1.763205        1.000000        0.00000000        0.00000000        0.00000000
     106         -1.763107        1.000000        0.00000000        0.00000000        0.00000000
     107         -1.762531        1.000000        0.00000000        0.00000000        0.00000000
     108         -1.762343        1.000000        0.00000000        0.00000000        0.00000000
     109         -1.761453        1.000000        0.00000000        0.00000000        0.00000000
     110         -1.760969        1.000000        0.00000000        0.00000000        0.00000000
     111         -1.760481        1.000000        0.00000000        0.00000000        0.00000000
     112         -1.760009        1.000000        0.00000000        0.00000000        0.00000000
     113         -1.759531        1.000000        0.00000000        0.00000000        0.00000000
     114         -1.759105        1.000000        0.00000000        0.00000000        0.00000000
     115         -1.758777        1.000000        0.00000000        0.00000000        0.00000000
     116         -1.757462        1.000000        0.00000000        0.00000000        0.00000000
     117         -1.756221        1.000000        0.00000000        0.00000000        0.00000000
     118         -1.755333        1.000000        0.00000000        0.00000000        0.00000000
     119         -1.754385        1.000000        0.00000000        0.00000000        0.00000000
     120         -1.752742        1.000000        0.00000000        0.00000000        0.00000000
     121         -1.131181        1.000000        0.00287035        0.00060376        0.00016447
     122         -1.128658        1.000000        0.00157866        0.00056785        0.00010825
     123         -1.128000        1.000000        0.00028065        0.00002190        0.00001198
     124         -1.126427        1.000000        0.00007349        0.00005474        0.00000566
     125         -1.120469        1.000000        0.00007197        0.00004859        0.00000406
     126         -1.119202        1.000000        0.00047259        0.00003530        0.00001914
     127         -1.117081        1.000000        0.00000094        0.00039085        0.00001069
     128         -1.116156        1.000000        0.00353124        0.00049554        0.00012324
     129         -1.115054        1.000000        0.00081365        0.00009821        0.00003857
     130         -1.111818        1.000000        0.00135918        0.00013912        0.00004466
     131         -1.111610        1.000000        0.00007427        0.00002309        0.00000509
     132         -1.110976        1.000000        0.00118558        0.00004526        0.00003152
     133         -1.109888        1.000000        0.00416467        0.00017276        0.00012200
     134         -1.108601        1.000000        0.00256924        0.00010568        0.00007837
     135         -1.108036        1.000000        0.00088219        0.00002133        0.00004484
     136         -1.107349        1.000000        0.00167317        0.00012191        0.00004872
     137         -1.106797        1.000000        0.00019034        0.00016628        0.00000581
     138         -1.106077        1.000000        0.00028496        0.00004912        0.00002055
     139         -1.104162        1.000000        0.00036019        0.00045453        0.00002222
     140         -1.102892        1.000000        0.00114384        0.00009069        0.00003445
     141         -1.102196        1.000000        0.01179132        0.00045581        0.00029158
     142         -1.101581        1.000000        0.00151673        0.00041384        0.00004425
     143         -1.101215        1.000000        0.00335604        0.00044538        0.00007350
     144         -1.099602        1.000000        0.00104009        0.00010710        0.00002151
     145         -1.098107        1.000000        0.00009073        0.00004046        0.00001116
     146         -1.097450        1.000000        0.00175573        0.00093546        0.00003886
     147         -1.097046        1.000000        0.01779066        0.00059058        0.00037824
     148         -1.095795        1.000000        0.00009019        0.00078806        0.00000726
     149         -1.095192        1.000000        0.01550326        0.00122740        0.00029687
     150         -1.093515        1.000000        0.00806430        0.00044131        0.00015990
     151         -1.093123        1.000000        0.00021292        0.00005863        0.00000616
     152         -1.092614        1.000000        0.00005971        0.00072133        0.00000848
     153         -1.091821        1.000000        0.00038291        0.00038304        0.00001652
     154         -1.090761        1.000000        0.00101991        0.00016624        0.00002053
     155         -1.090597        1.000000        0.00056493        0.00029686        0.00002291
     156         -1.089544        1.000000        0.00031628        0.00027319        0.00000963
     157         -1.088154        1.000000        0.00845285        0.00146043        0.00013954
     158         -1.086960        1.000000        0.00629832        0.00014311        0.00009333
     159         -1.086718        1.000000        0.00004267        0.00054859        0.00002240
     160         -1.085525        1.000000        0.00028319        0.00030021        0.00002509
     161         -1.084219        1.000000        0.00116053        0.00016873        0.00001179
     162         -1.082734        1.000000        0.00142922        0.00040829        0.00001603
     163         -1.082381        1.000000        0.00007838        0.00003713        0.00004601
     164         -1.080807        1.000000        0.00120474        0.00012369        0.00001136
     165         -1.080293        1.000000        0.00061473        0.00003308        0.00001052
     166         -1.079453        1.000000        0.00044258        0.00013541        0.00000460
     167         -1.078246        1.000000        0.00129611        0.00108949        0.00004463
     168         -1.077774        1.000000        0.00004439        0.00001211        0.00000290
     169         -1.077143        1.000000        0.00004920        0.00008270        0.00001393
     170         -1.076426        1.000000        0.00219736        0.00057246        0.00006189
     171         -1.076145        1.000000        0.00015958        0.00087866        0.00005845
     172         -1.074526        1.000000        0.00076553        0.00020457        0.00002009
     173         -1.074368        1.000000        0.00107059        0.00016081        0.00002971
     174         -1.073652        1.000000        0.00003698        0.00001235        0.00002088
     175         -1.072808        1.000000        0.00003154        0.00063156        0.00004507
     176         -1.072152        1.000000        0.00034471        0.00003458        0.00005938
     177         -1.071192        1.000000        0.00299576        0.00006088        0.00006269
     178         -1.070444        1.000000        0.00039836        0.00012023        0.00003177
     179         -1.070141        1.000000        0.00158625        0.00016437        0.00002615
     180         -1.069416        1.000000        0.00005257        0.00017995        0.00000961
     181         -1.069179        1.000000        0.00005232        0.00018372        0.00003880
     182         -1.067610        1.000000        0.00204293        0.00025024        0.00001943
     183         -1.066240        1.000000        0.00010485        0.00005087        0.00001663
     184         -1.065124        1.000000        0.00079537        0.00010495        0.00007217
     185         -1.064565        1.000000        0.00003671        0.00004915        0.00003096
     186         -1.063575        1.000000        0.00012366        0.00014596        0.00000242
     187         -1.062901        1.000000        0.00008935        0.00011222        0.00007140
     188         -1.062274        1.000000        0.00302929        0.00006077        0.00005392
     189         -1.061481        1.000000        0.00002493        0.00006319        0.00003407
     190         -1.061312        1.000000        0.00103849        0.00003427        0.00004296
     191         -1.060592        1.000000        0.00000225        0.00003655        0.00000856
     192         -1.059297        1.000000        0.00002152        0.00005335        0.00000532
     193         -1.058643        1.000000        0.00607935        0.00007591        0.00003006
     194         -1.058262        1.000000        0.01665954        0.00033532        0.00005673
     195         -1.057127        1.000000        0.00233354        0.00016423        0.00001837
     196         -1.056224        1.000000        0.00044362        0.00007314        0.00003139
     197         -1.056050        1.000000        0.00674518        0.00014100        0.00003174
     198         -1.054881        1.000000        0.00004034        0.00005107        0.00002229
     199         -1.054669        1.000000        0.00201244        0.00043101        0.00002739
     200         -1.053605        1.000000        0.00266661        0.00014748        0.00004971
     201         -1.053457        1.000000        0.00043657        0.00001746        0.00000757
     202         -1.052589        1.000000        0.00019073        0.00001126        0.00000449
     203         -1.052089        1.000000        0.00056059        0.00005131        0.00003703
     204         -1.051299        1.000000        0.00832712        0.00015208        0.00002311
     205         -1.050676        1.000000        0.00013236        0.00000616        0.00001765
     206         -1.050307        1.000000        0.00005196        0.00004127        0.00000877
     207         -1.049921        1.000000        0.00615189        0.00013863        0.00002008
     208         -1.049485        1.000000        0.00340706        0.00011563        0.00001155
     209         -1.049126        1.000000        0.00047904        0.00001038        0.00000703
     210         -1.048445        1.000000        0.00154279        0.00008130        0.00008315
     211         -1.048201        1.000000        0.00092809        0.00018464        0.00005307
     212         -1.047911        1.000000        0.00038971        0.00001532        0.00002515
     213         -1.047620        1.000000        0.00043973        0.00020859        0.00007265
     214         -1.046931        1.000000        0.00565193        0.00022710        0.00002418
     215         -1.046733        1.000000        0.00061216        0.00003156        0.00000711
     216         -1.046634        1.000000        0.00344279        0.00034666        0.00006662
     217         -1.045930        1.000000        0.00015748        0.00002034        0.00002008
     218         -1.045069        1.000000        0.00274630        0.00018471        0.00010035
     219         -1.044350        1.000000        0.00284798        0.00010782        0.00003900
     220         -1.043623        1.000000        0.00000637        0.00006964        0.00006203
     221         -1.043421        1.000000        0.00132860        0.00002560        0.00009608
     222         -1.042778        1.000000        0.00012069        0.00001332        0.00000291
     223         -1.042701        1.000000        0.00075080        0.00001398        0.00000307
     224         -1.042424        1.000000        0.00356970        0.00003214        0.00002937
     225         -1.041682        1.000000        0.00283779        0.00009867        0.00008266
     226         -1.041498        1.000000        0.00000553        0.00002435        0.00004943
     227         -1.040837        1.000000        0.01096322        0.00026283        0.00018655
     228         -1.040496        1.000000        0.00095960        0.00002191        0.00001016
     229         -1.040151        1.000000        0.00231250        0.00001809        0.00001320
     230         -1.039686        1.000000        0.00136788        0.00002895        0.00001032
     231         -1.038961        1.000000        0.00146390        0.00003609        0.00001638
     232         -1.038553        1.000000        0.00113928        0.00001878        0.00000883
     233         -1.038476        1.000000        0.00134077        0.00002547        0.00002599
     234         -1.038152        1.000000        0.00003714        0.00000307        0.00001293
     235         -1.038041        1.000000        0.00049977        0.00002924        0.00000434
     236         -1.036855        1.000000        0.00189745        0.00007058        0.00002023
     237         -1.036488        1.000000        0.00573926        0.00012865        0.00001647
     238         -1.036186        1.000000        0.00245953        0.00002023        0.00000641
     239         -1.036068        1.000000        0.00046792        0.00000350        0.00000272
     240         -1.035757        1.000000        0.04825235        0.00048177        0.00003282
     241         -1.035291        1.000000        0.02079944        0.00023814        0.00004977
     242         -1.035048        1.000000        0.00297727        0.00008953        0.00000849
     243         -1.035000        1.000000        0.00429784        0.00005340        0.00006404
     244         -1.034454        1.000000        0.00031356        0.00000743        0.00000300
     245         -1.034219        1.000000        0.00359802        0.00005433        0.00008842
     246         -1.033874        1.000000        0.01108717        0.00013952        0.00000818
     247         -1.033507        1.000000        0.00095554        0.00000746        0.00000088
     248         -1.033219        1.000000        0.01084197        0.00009108        0.00001110
     249         -1.033056        1.000000        0.01860265        0.00016485        0.00001668
     250         -1.032307        1.000000        0.00003329        0.00002960        0.00001784
     251         -1.031324        1.000000        0.07376259        0.00049782        0.00004521
     252         -1.031144        1.000000        0.00476585        0.00004160        0.00001006
     253         -1.030643        1.000000        0.00157278        0.00002629        0.00000727
     254         -1.030284        1.000000        0.00402494        0.00003737        0.00000348
     255         -1.030062        1.000000        0.00183246        0.00001614        0.00000930
     256         -1.029818        1.000000        0.00028778        0.00000719        0.00003787
     257         -1.028552        1.000000        0.00127104        0.00002598        0.00000429
     258         -1.027578        1.000000        0.00315241        0.00005304        0.00003772
     259         -1.027121        1.000000        0.00179622        0.00002268        0.00000315
     260         -1.026880        1.000000        0.00115834        0.00003644        0.00001806
     261         -1.026226        1.000000        0.00252274        0.00002658        0.00000215
     262         -1.025765        1.000000        0.00010242        0.00000431        0.00000688
     263         -1.025299        1.000000        0.00007137        0.00000279        0.00000094
     264         -1.025158        1.000000        0.02567508        0.00027790        0.00003373
     265         -1.025007        1.000000        0.00918703        0.00010108        0.00003089
     266         -1.024422        1.000000        0.00713978        0.00015279        0.00002110
     267         -1.023793        1.000000        0.00038552        0.00000527        0.00000384
     268         -1.023594        1.000000        0.00243813        0.00015819        0.00017561
     269         -1.023069        1.000000        0.00547400        0.00004957        0.00004342
     270         -1.022603        1.000000        0.00145979        0.00001836        0.00001595
     271         -1.022074        1.000000        0.00439504        0.00005834        0.00001602
     272         -1.021695        1.000000        0.00000259        0.00000520        0.00001685
     273         -1.021372        1.000000        0.00036982        0.00000425        0.00000260
     274         -1.021076        1.000000        0.04836391        0.00058583        0.00024352
     275         -1.019492        1.000000        0.00010522        0.00000131        0.00000026
     276         -1.018003        1.000000        0.00006920        0.00000637        0.00000111
     277         -1.016408        1.000000        0.00072320        0.00000708        0.00000378
     278         -1.016278        1.000000        0.00004346        0.00000368        0.00000015
     279         -1.015338        1.000000        0.00006581        0.00000496        0.00000444
     280         -1.013851        1.000000        0.00001134        0.00000021        0.00000009
     281         -1.010223        1.000000        0.00000217        0.00000002        0.00000001
     282         -1.009666        1.000000        0.00000048        0.00000007        0.00000001
     283         -1.007726        1.000000        0.00000036        0.00000016        0.00000004
     284         -1.007300        1.000000        0.00000005        0.00000001        0.00000001
     285         -1.006916        1.000000        0.00000002        0.00000001        0.00000000
     286         -0.889442        1.000000        0.00000008        0.00000006        0.00000000
     287         -0.869424        1.000000        0.00000001        0.00000000        0.00000000
     288         -0.867225        1.000000        0.00000002        0.00000003        0.00000000
     289         -0.864755        1.000000        0.00000000        0.00000001        0.00000000
     290         -0.860947        1.000000        0.00000002        0.00000004        0.00000000
     291         -0.846899        1.000000        0.00000000        0.00000000        0.00000000
     292         -0.844423        1.000000        0.00000000        0.00000001        0.00000000
     293         -0.843782        1.000000        0.00000001        0.00000002        0.00000000
     294         -0.840445        1.000000        0.00000002        0.00000003        0.00000000
     295         -0.821748        1.000000        0.00000000        0.00000000        0.00000000
     296         -0.818927        1.000000        0.00000000        0.00000001        0.00000000
     297         -0.814033        1.000000        0.00000007        0.00000005        0.00000000
     298         -0.808071        1.000000        0.00000000        0.00000001        0.00000000
     299         -0.807076        1.000000        0.00000001        0.00000000        0.00000000
     300         -0.806003        1.000000        0.00000001        0.00000003        0.00000000
     301         -0.805433        1.000000        0.00000000        0.00000000        0.00000000
     302         -0.803208        1.000000        0.00000003        0.00000004        0.00000000
     303         -0.802271        1.000000        0.00000001        0.00000004        0.00000000
     304         -0.801014        1.000000        0.00000000        0.00000000        0.00000000
     305         -0.800419        1.000000        0.00000000        0.00000000        0.00000000
     306         -0.800163        1.000000        0.00000000        0.00000000        0.00000000
     307         -0.798966        1.000000        0.00000000        0.00000000        0.00000000