# Projected DOS for list 250 of 1 atoms, at iteration step i = 0, E(Fermi) =    -0.245567 a.u.
#     MO Eigenvalue [a.u.]      Occupation                 s                 p                 d                 f
       1         -3.122063        1.000000        0.11504629        0.00133073        0.01200555        0.00014935
       2         -3.121278        1.000000        0.03466471        0.00048053        0.00022257        0.00003057
       3         -3.121021        1.000000        0.57805086        0.00054625        0.00148128        0.00005963
       4         -3.120578        1.000000        0.01409062        0.00016096        0.00068503        0.00002987
       5         -3.120271        1.000000        0.07626524        0.00060835        0.00378907        0.00024614
       6         -3.119857        1.000000        0.00355982        0.00002817        0.00025275        0.00000974
       7         -3.119652        1.000000        0.00074971        0.00001954        0.00064101        0.00000559
       8         -3.119624        1.000000        0.00399813        0.00005491        0.00266090        0.00001750
       9         -3.119219        1.000000        0.00063296        0.00118681        0.00739969        0.00020010
      10         -3.119023        1.000000        0.02454211        0.00061739        0.00526446        0.00012898
      11         -3.118913        1.000000        0.01418056        0.00025243        0.00400507        0.00016758
      12         -3.118874        1.000000        0.00084675        0.00013610        0.00179402        0.00010559
      13         -3.118317        1.000000        0.00001992        0.00016526        0.00011624        0.00007019
      14         -3.118249        1.000000        0.00461900        0.00046565        0.00787026        0.00024565
      15         -3.117895        1.000000        0.00072482        0.00017588        0.00125650        0.00004343
      16         -3.117383        1.000000        0.00021354        0.00000060        0.00010289        0.00000719
      17         -3.117165        1.000000        0.00015846        0.00005952        0.00026138        0.00000765
      18         -3.116815        1.000000        0.00000438        0.00000155        0.00006668        0.00000248
      19         -3.116436        1.000000        0.00001382        0.00001061        0.00011953        0.00000640
      20         -3.116021        1.000000        0.00099690        0.00039650        0.00404094        0.00015876
      21         -3.115852        1.000000        0.00002852        0.00000633        0.00006792        0.00000356
      22         -3.115668        1.000000        0.00000509        0.00000613        0.00000668        0.00000032
      23         -3.115368        1.000000        0.00156987        0.00032541        0.00437869        0.00018886
      24         -3.115339        1.000000        0.00014215        0.00002863        0.00031693        0.00001604
      25         -3.115041        1.000000        0.00001492        0.00004127        0.00000497        0.00000075
      26         -3.114366        1.000000        0.00011309        0.00001868        0.00020241        0.00001244
      27         -3.113951        1.000000        0.00000066        0.00000093        0.00000292        0.00000007
      28         -3.113764        1.000000        0.00000881        0.00000011        0.00001343        0.00000179
      29         -3.112534        1.000000        0.00000021        0.00000017        0.00000011        0.00000001
      30         -3.111679        1.000000        0.00000726        0.00001794        0.00001436        0.00000022
      31         -1.784233        1.000000        0.00000327        0.02610583        0.00006232        0.00006883
      32         -1.782870        1.000000        0.00015290        0.01066204        0.00013185        0.00009409
      33         -1.782324        1.000000        0.00000074        0.02430389        0.00029707        0.00000307
      34         -1.782130        1.000000        0.00005322        0.01051568        0.00124982        0.00006508
      35         -1.781736        1.000000        0.00003978        0.19552157        0.00007228        0.00012422
      36         -1.781230        1.000000        0.00009550        0.02830395        0.00111853        0.00000624
      37         -1.780847        1.000000        0.00018832        0.05908250        0.00021628        0.00000360
      38         -1.780487        1.000000        0.00005452        0.00765234        0.00050145        0.00002245
      39         -1.780184        1.000000        0.00005424        0.06534582        0.00018083        0.00004421
      40         -1.779550        1.000000        0.00011274        0.02122607        0.00067976        0.00001159
      41         -1.779259        1.000000        0.00025685        0.01713424        0.00056222        0.00004513
      42         -1.778921        1.000000        0.00047344        0.00380298        0.00040262        0.00001275
      43         -1.778390        1.000000        0.00000190        0.05056491        0.00026750        0.00001717
      44         -1.778140        1.000000        0.00001523        0.03917351        0.00033251        0.00001530
      45         -1.777912        1.000000        0.00000101        0.01793262        0.00042739        0.00001068
      46         -1.777514        1.000000        0.00001274        0.06327534        0.00024317        0.00000465
      47         -1.777362        1.000000        0.00090883        0.05604160        0.00056766        0.00002835
      48         -1.776787        1.000000        0.00021826        0.00506881        0.00039960        0.00000843
      49         -1.776537        1.000000        0.00000947        0.02353877        0.00010933        0.00000818
      50         -1.776457        1.000000        0.00000161        0.00774359        0.00005746        0.00000029
      51         -1.776029        1.000000        0.00045566        0.00717212        0.00030775        0.00002594
      52         -1.774038        1.000000        0.00001199        0.09692675        0.00002523        0.00000916
      53         -1.773797        1.000000        0.00000082        0.08370467        0.00009127        0.00003120
      54         -1.773665        1.000000        0.00000038        0.00994594        0.00182029        0.00000584
      55         -1.772725        1.000000        0.00001612        0.08358906        0.00025509        0.00003045
      56         -1.772546        1.000000        0.00000021        0.13336454        0.00011023        0.00000905
      57         -1.772041        1.000000        0.00001617        0.04771777        0.00053221        0.00001926
      58         -1.771662        1.000000        0.00000510        0.19454489        0.00013208        0.00001053
      59         -1.771364        1.000000        0.00000040        0.10120593        0.00028090        0.00000090
      60         -1.770813        1.000000        0.00000151        0.01789852        0.00012278        0.00001352
      61         -1.770640        1.000000        0.00005785        0.02116196        0.00043089        0.00000509
      62         -1.770449        1.000000        0.00012112        0.01639079        0.00032403        0.00000488
      63         -1.770188        1.000000        0.00014149        0.02217464        0.00011069        0.00001810
      64         -1.770126        1.000000        0.00044719        0.01704524        0.00026160        0.00000903
      65         -1.769991        1.000000        0.00000281        0.00287437        0.00015687        0.00002564
      66         -1.769845        1.000000        0.00006879        0.05119511        0.00007021        0.00001668
      67         -1.769763        1.000000        0.00000371        0.02301443        0.00006524        0.00000752
      68         -1.769661        1.000000        0.00000538        0.03904500        0.00010434        0.00002319
      69         -1.769465        1.000000        0.00003487        0.06064946        0.00005727        0.00001830
      70         -1.769351        1.000000        0.00026086        0.01587655        0.00029790        0.00002998
      71         -1.769328        1.000000        0.00018536        0.01553485        0.00033258        0.00000522
      72         -1.769216        1.000000        0.00004350        0.02511121        0.00013005        0.00000626
      73         -1.769129        1.000000        0.00015394        0.03219078        0.00035389        0.00002679
      74         -1.769070        1.000000        0.00006112        0.05561353        0.00039644        0.00001867
      75         -1.768941        1.000000        0.00000106        0.12047436        0.00019786        0.00004563
      76         -1.768822        1.000000        0.00002325        0.00935894        0.00008598        0.00002970
      77         -1.768707        1.000000        0.00004094        0.01687739        0.00006765        0.00001543
      78         -1.768585        1.000000        0.00000248        0.06318425        0.00012410        0.00000699
      79         -1.768439        1.000000        0.00003287        0.00812358        0.00034727        0.00002745
      80         -1.768329        1.000000        0.00006023        0.00693227        0.00042996        0.00001554
      81         -1.768089        1.000000        0.00000908        0.00358252        0.00003360        0.00000937
      82         -1.767883        1.000000        0.00001720        0.00185642        0.00020056        0.00000283
      83         -1.767662        1.000000        0.00000356        0.01475418        0.00004740        0.00002437
      84         -1.767495        1.000000        0.00005836        0.06234790        0.00030422        0.00000467
      85         -1.767311        1.000000        0.00011661        0.01284925        0.00037972        0.00000435
      86         -1.767266        1.000000        0.00003380        0.02583169        0.00057154        0.00000418
      87         -1.767060        1.000000        0.00000398        0.00478672        0.00038075        0.00000331
      88         -1.767025        1.000000        0.00003240        0.01351132        0.00021634        0.00000174
      89         -1.766872        1.000000        0.00011489        0.00032498        0.00078097        0.00000319
      90         -1.766524        1.000000        0.00004963        0.02476224        0.00009424        0.00000257
      91         -1.766405        1.000000        0.00003065        0.00153888        0.00014064        0.00000191
      92         -1.766254        1.000000        0.00004103        0.00179745        0.00019370        0.00001867
      93         -1.766123        1.000000        0.00012416        0.00490890        0.00060082        0.00001345
      94         -1.765857        1.000000        0.00008080        0.02347285        0.00066208        0.00003640
      95         -1.765515        1.000000        0.00000979        0.00043216        0.00018985        0.00000822
      96         -1.765181        1.000000        0.00002544        0.02623342        0.00035189        0.00000974
      97         -1.765105        1.000000        0.00015754        0.01836383        0.00058382        0.00000837
      98         -1.764967        1.000000        0.00000191        0.02349206        0.00011912        0.00000302
      99         -1.764710        1.000000        0.00004406        0.02539054        0.00020054        0.00000581
     100         -1.764440        1.000000        0.00000521        0.00856770        0.00023690        0.00000251
     101         -1.764248        1.000000        0.00006630        0.03617716        0.00010174        0.00001126
     102         -1.763945        1.000000        0.00000103        0.02578943        0.00008260        0.00000359
     103         -1.763804        1.000000        0.00000253        0.01502910        0.00005705        0.00000375
     104         -1.763351        1.000000        0.00010329        0.07223594        0.00014583        0.00001532
     105         -1.763205        1.000000        0.00000996        0.02565306        0.00009375        0.00000498
     106         -1.763107        1.000000        0.00005888        0.03631440        0.00010753        0.00001327
     107         -1.762531        1.000000        0.00003778        0.00016964        0.00002994        0.00000242
     108         -1.762343        1.000000        0.00000088        0.01158891        0.00000883        0.00000476
     109         -1.761453        1.000000        0.00002418        0.00585419        0.00005121        0.00000774
     110         -1.760969        1.000000        0.00000741        0.01524081        0.00001578        0.00000921
     111         -1.760481        1.000000        0.00001934        0.00687960        0.00013674        0.00000165
     112         -1.760009        1.000000        0.00001967        0.01010494        0.00006722        0.00000512
     113         -1.759531        1.000000        0.00000702        0.00457853        0.00005005        0.00000701
     114         -1.759105        1.000000        0.00000015        0.00119817        0.00002491        0.00000132
     115         -1.758777        1.000000        0.00000242        0.08969631        0.00003536        0.00012827
     116         -1.757462        1.000000        0.00000161        0.07167331        0.00004463        0.00011440
     117         -1.756221        1.000000        0.00000006        0.00928270        0.00002585        0.00001224
     118         -1.755333        1.000000        0.00000175        0.03422766        0.00000280        0.00004786
     119         -1.754385        1.000000        0.00000002        0.00013050        0.00002092        0.00000036
     120         -1.752742        1.000000        0.00000051        0.00058904        0.00000035        0.00000131
     121         -1.131181        1.000000        0.00000011        0.00000005        0.00000003        0.00000000
     122         -1.128658        1.000000        0.00000012        0.00000005        0.00000005        0.00000000
     123         -1.128000        1.000000        0.00000014        0.00000006        0.00000005        0.00000000
     124         -1.126427        1.000000        0.00000001        0.00000000        0.00000000        0.00000000
     125         -1.120469        1.000000        0.00000004        0.00000003        0.00000004        0.00000000
     126         -1.119202        1.000000        0.00000004        0.00000003        0.00000006        0.00000000
     127         -1.117081        1.000000        0.00000001        0.00000003        0.00000009        0.00000000
     128         -1.116156        1.000000        0.00000002        0.00000007        0.00000021        0.00000001
     129         -1.115054        1.000000        0.00000010        0.00000004        0.00000002        0.00000000
     130         -1.111818        1.000000        0.00000005        0.00000009        0.00000028        0.00000001
     131         -1.111610        1.000000        0.00000011        0.00000008        0.00000017        0.00000001
     132         -1.110976        1.000000        0.00000011        0.00000005        0.00000005        0.00000000
     133         -1.109888        1.000000        0.00000015        0.00000006        0.00000005        0.00000000
     134         -1.108601        1.000000        0.00000000        0.00000000        0.00000002        0.00000000
     135         -1.108036        1.000000        0.00000008        0.00000003        0.00000004        0.00000000
     136         -1.107349        1.000000        0.00000021        0.00000009        0.00000014        0.00000001
     137         -1.106797        1.000000        0.00000000        0.00000001        0.00000002        0.00000000
     138         -1.106077        1.000000        0.00000013        0.00000007        0.00000019        0.00000001
     139         -1.104162        1.000000        0.00000001        0.00000007        0.00000037        0.00000001
     140         -1.102892        1.000000        0.00000016        0.00000011        0.00000027        0.00000001
     141         -1.102196        1.000000        0.00000001        0.00000001        0.00000005        0.00000000
     142         -1.101581        1.000000        0.00000002        0.00000003        0.00000011        0.00000000
     143         -1.101215        1.000000        0.00000006        0.00000002        0.00000005        0.00000000
     144         -1.099602        1.000000        0.00000022        0.00000008        0.00000009        0.00000000
     145         -1.098107        1.000000        0.00000014        0.00000008        0.00000024        0.00000001
     146         -1.097450        1.000000        0.00000009        0.00000005        0.00000022        0.00000001
     147         -1.097046        1.000000        0.00000001        0.00000001        0.00000003        0.00000000
     148         -1.095795        1.000000        0.00000045        0.00000017        0.00000047        0.00000003
     149         -1.095192        1.000000        0.00000001        0.00000002        0.00000008        0.00000000
     150         -1.093515        1.000000        0.00000027        0.00000011        0.00000035        0.00000002
     151         -1.093123        1.000000        0.00000016        0.00000009        0.00000046        0.00000003
     152         -1.092614        1.000000        0.00000000        0.00000004        0.00000018        0.00000001
     153         -1.091821        1.000000        0.00000015        0.00000010        0.00000031        0.00000002
     154         -1.090761        1.000000        0.00000054        0.00000016        0.00000061        0.00000003
     155         -1.090597        1.000000        0.00000001        0.00000005        0.00000038        0.00000002
     156         -1.089544        1.000000        0.00000031        0.00000017        0.00000060        0.00000002
     157         -1.088154        1.000000        0.00000002        0.00000002        0.00000015        0.00000001
     158         -1.086960        1.000000        0.00000011        0.00000005        0.00000030        0.00000001
     159         -1.086718        1.000000        0.00000007        0.00000003        0.00000020        0.00000001
     160         -1.085525        1.000000        0.00000032        0.00000006        0.00000034        0.00000002
     161         -1.084219        1.000000        0.00000008        0.00000011        0.00000053        0.00000003
     162         -1.082734        1.000000        0.00000003        0.00000003        0.00000030        0.00000001
     163         -1.082381        1.000000        0.00000004        0.00000035        0.00000240        0.00000009
     164         -1.080807        1.000000        0.00000060        0.00000030        0.00000156        0.00000010
     165         -1.080293        1.000000        0.00000175        0.00000146        0.00000753        0.00000045
     166         -1.079453        1.000000        0.00000000        0.00000001        0.00000007        0.00000000
     167         -1.078246        1.000000        0.00000000        0.00000000        0.00000005        0.00000000
     168         -1.077774        1.000000        0.00000314        0.00000157        0.00000783        0.00000051
     169         -1.077143        1.000000        0.00000022        0.00000008        0.00000031        0.00000002
     170         -1.076426        1.000000        0.00000003        0.00000002        0.00000006        0.00000000
     171         -1.076145        1.000000        0.00000067        0.00000038        0.00000202        0.00000012
     172         -1.074526        1.000000        0.00000378        0.00000234        0.00001169        0.00000073
     173         -1.074368        1.000000        0.00000209        0.00000094        0.00000443        0.00000029
     174         -1.073652        1.000000        0.00000148        0.00000086        0.00000417        0.00000029
     175         -1.072808        1.000000        0.00000014        0.00000009        0.00000033        0.00000002
     176         -1.072152        1.000000        0.00000014        0.00000009        0.00000046        0.00000003
     177         -1.071192        1.000000        0.00000030        0.00000016        0.00000091        0.00000006
     178         -1.070444        1.000000        0.00000002        0.00000007        0.00000073        0.00000005
     179         -1.070141        1.000000        0.00000004        0.00000012        0.00000103        0.00000006
     180         -1.069416        1.000000        0.00000002        0.00000011        0.00000090        0.00000007
     181         -1.069179        1.000000        0.00000041        0.00000032        0.00000178        0.00000012
     182         -1.067610        1.000000        0.00000002        0.00000002        0.00000006        0.00000001
     183         -1.066240        1.000000        0.00000000        0.00000007        0.00000043        0.00000003
     184         -1.065124        1.000000        0.00000036        0.00000021        0.00000115        0.00000008
     185         -1.064565        1.000000        0.00000001        0.00000005        0.00000087        0.00000006
     186         -1.063575        1.000000        0.00000000        0.00000001        0.00000040        0.00000003
     187         -1.062901        1.000000        0.00000012        0.00000010        0.00000118        0.00000009
     188         -1.062274        1.000000        0.00000013        0.00000012        0.00000098        0.00000006
     189         -1.061481        1.000000        0.00000002        0.00000006        0.00000026        0.00000001
     190         -1.061312        1.000000        0.00000013        0.00000020        0.00000085        0.00000003
     191         -1.060592        1.000000        0.00000005        0.00000003        0.00000013        0.00000001
     192         -1.059297        1.000000        0.00000004        0.00000005        0.00000032        0.00000002
     193         -1.058643        1.000000        0.00000000        0.00000009        0.00000049        0.00000002
     194         -1.058262        1.000000        0.00000036        0.00000044        0.00000145        0.00000009
     195         -1.057127        1.000000        0.00000027        0.00000020        0.00000071        0.00000004
     196         -1.056224        1.000000        0.00000054        0.00000032        0.00000215        0.00000016
     197         -1.056050        1.000000        0.00000005        0.00000009        0.00000064        0.00000004
     198         -1.054881        1.000000        0.00000001        0.00000006        0.00000088        0.00000007
     199         -1.054669        1.000000        0.00000001        0.00000001        0.00000034        0.00000004
     200         -1.053605        1.000000        0.00000000        0.00000001        0.00000006        0.00000001
     201         -1.053457        1.000000        0.00000006        0.00000009        0.00000032        0.00000001
     202         -1.052589        1.000000        0.00000002        0.00000012        0.00000043        0.00000001
     203         -1.052089        1.000000        0.00000044        0.00000071        0.00000247        0.00000014
     204         -1.051299        1.000000        0.00000081        0.00000072        0.00000246        0.00000016
     205         -1.050676        1.000000        0.00000116        0.00000110        0.00000377        0.00000026
     206         -1.050307        1.000000        0.00000031        0.00000013        0.00000047        0.00000004
     207         -1.049921        1.000000        0.00000208        0.00000206        0.00000663        0.00000041
     208         -1.049485        1.000000        0.00000031        0.00000033        0.00000111        0.00000006
     209         -1.049126        1.000000        0.00000030        0.00000015        0.00000042        0.00000003
     210         -1.048445        1.000000        0.00000020        0.00000019        0.00000059        0.00000004
     211         -1.048201        1.000000        0.00000001        0.00000002        0.00000010        0.00000001
     212         -1.047911        1.000000        0.00000019        0.00000011        0.00000030        0.00000002
     213         -1.047620        1.000000        0.00000018        0.00000009        0.00000037        0.00000003
     214         -1.046931        1.000000        0.00000033        0.00000051        0.00000184        0.00000012
     215         -1.046733        1.000000        0.00000004        0.00000003        0.00000012        0.00000001
     216         -1.046634        1.000000        0.00000087        0.00000091        0.00000296        0.00000018
     217         -1.045930        1.000000        0.00000017        0.00000015        0.00000048        0.00000003
     218         -1.045069        1.000000        0.00000001        0.00000011        0.00000050        0.00000003
     219         -1.044350        1.000000        0.00000005        0.00000010        0.00000035        0.00000002
     220         -1.043623        1.000000        0.00000011        0.00000031        0.00000113        0.00000006
     221         -1.043421        1.000000        0.00000133        0.00000043        0.00000143        0.00000006
     222         -1.042778        1.000000        0.00000000        0.00000001        0.00000004        0.00000000
     223         -1.042701        1.000000        0.00000001        0.00000005        0.00000018        0.00000000
     224         -1.042424        1.000000        0.00000004        0.00000024        0.00000084        0.00000003
     225         -1.041682        1.000000        0.00000000        0.00000001        0.00000003        0.00000000
     226         -1.041498        1.000000        0.00000072        0.00000079        0.00000312        0.00000018
     227         -1.040837        1.000000        0.00000012        0.00000004        0.00000015        0.00000000
     228         -1.040496        1.000000        0.00000009        0.00000011        0.00000040        0.00000002
     229         -1.040151        1.000000        0.00000027        0.00000007        0.00000037        0.00000002
     230         -1.039686        1.000000        0.00000002        0.00000004        0.00000014        0.00000001
     231         -1.038961        1.000000        0.00000001        0.00000003        0.00000013        0.00000000
     232         -1.038553        1.000000        0.00000002        0.00000000        0.00000005        0.00000000
     233         -1.038476        1.000000        0.00000001        0.00000004        0.00000017        0.00000001
     234         -1.038152        1.000000        0.00000001        0.00000003        0.00000010        0.00000001
     235         -1.038041        1.000000        0.00000000        0.00000000        0.00000000        0.00000000
     236         -1.036855        1.000000        0.00000001        0.00000007        0.00000028        0.00000000
     237         -1.036488        1.000000        0.00000001        0.00000006        0.00000022        0.00000001
     238         -1.036186        1.000000        0.00000001        0.00000001        0.00000002        0.00000000
     239         -1.036068        1.000000        0.00000001        0.00000003        0.00000010        0.00000001
     240         -1.035757        1.000000        0.00000002        0.00000001        0.00000006        0.00000000
     241         -1.035291        1.000000        0.00000000        0.00000003        0.00000014        0.00000000
     242         -1.035048        1.000000        0.00000001        0.00000003        0.00000007        0.00000001
     243         -1.035000        1.000000        0.00000003        0.00000002        0.00000010        0.00000000
     244         -1.034454        1.000000        0.00000002        0.00000001        0.00000004        0.00000000
     245         -1.034219        1.000000        0.00000007        0.00000001        0.00000012        0.00000001
     246         -1.033874        1.000000        0.00000012        0.00000004        0.00000019        0.00000000
     247         -1.033507        1.000000        0.00000000        0.00000000        0.00000002        0.00000000
     248         -1.033219        1.000000        0.00000019        0.00000006        0.00000023        0.00000001
     249         -1.033056        1.000000        0.00000007        0.00000002        0.00000008        0.00000000
     250         -1.032307        1.000000        0.00000003        0.00000001        0.00000009        0.00000000
     251         -1.031324        1.000000        0.00000004        0.00000002        0.00000013        0.00000000
     252         -1.031144        1.000000        0.00000005        0.00000006        0.00000022        0.00000002
     253         -1.030643        1.000000        0.00000003        0.00000012        0.00000044        0.00000003
     254         -1.030284        1.000000        0.00000003        0.00000002        0.00000013        0.00000001
     255         -1.030062        1.000000        0.00000001        0.00000001        0.00000005        0.00000000
     256         -1.029818        1.000000        0.00000006        0.00000006        0.00000022        0.00000001
     257         -1.028552        1.000000        0.00000001        0.00000001        0.00000002        0.00000000
     258         -1.027578        1.000000        0.00000000        0.00000001        0.00000004        0.00000000
     259         -1.027121        1.000000        0.00000004        0.00000004        0.00000014        0.00000001